<?xml version="1.0"?>
<VTKFile type="UnstructuredGrid"  version="0.1"  >
<UnstructuredGrid>
<Piece  NumberOfPoints="961" NumberOfCells="1800">
<Points>
<DataArray  type="Float64"  NumberOfComponents="3"  format="ascii">0 0 0  0.03333333333333333 0 0  0.06666666666666667 0 0  0.1 0 0  0.1333333333333333 0 0  0.1666666666666667 0 0  0.2 0 0  0.2333333333333333 0 0  0.2666666666666667 0 0  0.3 0 0  0.3333333333333333 0 0  0.3666666666666666 0 0  0.4 0 0  0.4333333333333333 0 0  0.4666666666666667 0 0  0.5 0 0  0.5333333333333333 0 0  0.5666666666666667 0 0  0.6 0 0  0.6333333333333333 0 0  0.6666666666666666 0 0  0.7 0 0  0.7333333333333333 0 0  0.7666666666666667 0 0  0.8 0 0  0.8333333333333334 0 0  0.8666666666666667 0 0  0.9 0 0  0.9333333333333333 0 0  0.9666666666666667 0 0  1 0 0  0 0.03333333333333333 0  0.03333333333333333 0.03333333333333333 0  0.06666666666666667 0.03333333333333333 0  0.1 0.03333333333333333 0  0.1333333333333333 0.03333333333333333 0  0.1666666666666667 0.03333333333333333 0  0.2 0.03333333333333333 0  0.2333333333333333 0.03333333333333333 0  0.2666666666666667 0.03333333333333333 0  0.3 0.03333333333333333 0  0.3333333333333333 0.03333333333333333 0  0.3666666666666666 0.03333333333333333 0  0.4 0.03333333333333333 0  0.4333333333333333 0.03333333333333333 0  0.4666666666666667 0.03333333333333333 0  0.5 0.03333333333333333 0  0.5333333333333333 0.03333333333333333 0  0.5666666666666667 0.03333333333333333 0  0.6 0.03333333333333333 0  0.6333333333333333 0.03333333333333333 0  0.6666666666666666 0.03333333333333333 0  0.7 0.03333333333333333 0  0.7333333333333333 0.03333333333333333 0  0.7666666666666667 0.03333333333333333 0  0.8 0.03333333333333333 0  0.8333333333333334 0.03333333333333333 0  0.8666666666666667 0.03333333333333333 0  0.9 0.03333333333333333 0  0.9333333333333333 0.03333333333333333 0  0.9666666666666667 0.03333333333333333 0  1 0.03333333333333333 0  0 0.06666666666666667 0  0.03333333333333333 0.06666666666666667 0  0.06666666666666667 0.06666666666666667 0  0.1 0.06666666666666667 0  0.1333333333333333 0.06666666666666667 0  0.1666666666666667 0.06666666666666667 0  0.2 0.06666666666666667 0  0.2333333333333333 0.06666666666666667 0  0.2666666666666667 0.06666666666666667 0  0.3 0.06666666666666667 0  0.3333333333333333 0.06666666666666667 0  0.3666666666666666 0.06666666666666667 0  0.4 0.06666666666666667 0  0.4333333333333333 0.06666666666666667 0  0.4666666666666667 0.06666666666666667 0  0.5 0.06666666666666667 0  0.5333333333333333 0.06666666666666667 0  0.5666666666666667 0.06666666666666667 0  0.6 0.06666666666666667 0  0.6333333333333333 0.06666666666666667 0  0.6666666666666666 0.06666666666666667 0  0.7 0.06666666666666667 0  0.7333333333333333 0.06666666666666667 0  0.7666666666666667 0.06666666666666667 0  0.8 0.06666666666666667 0  0.8333333333333334 0.06666666666666667 0  0.8666666666666667 0.06666666666666667 0  0.9 0.06666666666666667 0  0.9333333333333333 0.06666666666666667 0  0.9666666666666667 0.06666666666666667 0  1 0.06666666666666667 0  0 0.1 0  0.03333333333333333 0.1 0  0.06666666666666667 0.1 0  0.1 0.1 0  0.1333333333333333 0.1 0  0.1666666666666667 0.1 0  0.2 0.1 0  0.2333333333333333 0.1 0  0.2666666666666667 0.1 0  0.3 0.1 0  0.3333333333333333 0.1 0  0.3666666666666666 0.1 0  0.4 0.1 0  0.4333333333333333 0.1 0  0.4666666666666667 0.1 0  0.5 0.1 0  0.5333333333333333 0.1 0  0.5666666666666667 0.1 0  0.6 0.1 0  0.6333333333333333 0.1 0  0.6666666666666666 0.1 0  0.7 0.1 0  0.7333333333333333 0.1 0  0.7666666666666667 0.1 0  0.8 0.1 0  0.8333333333333334 0.1 0  0.8666666666666667 0.1 0  0.9 0.1 0  0.9333333333333333 0.1 0  0.9666666666666667 0.1 0  1 0.1 0  0 0.1333333333333333 0  0.03333333333333333 0.1333333333333333 0  0.06666666666666667 0.1333333333333333 0  0.1 0.1333333333333333 0  0.1333333333333333 0.1333333333333333 0  0.1666666666666667 0.1333333333333333 0  0.2 0.1333333333333333 0  0.2333333333333333 0.1333333333333333 0  0.2666666666666667 0.1333333333333333 0  0.3 0.1333333333333333 0  0.3333333333333333 0.1333333333333333 0  0.3666666666666666 0.1333333333333333 0  0.4 0.1333333333333333 0  0.4333333333333333 0.1333333333333333 0  0.4666666666666667 0.1333333333333333 0  0.5 0.1333333333333333 0  0.5333333333333333 0.1333333333333333 0  0.5666666666666667 0.1333333333333333 0  0.6 0.1333333333333333 0  0.6333333333333333 0.1333333333333333 0  0.6666666666666666 0.1333333333333333 0  0.7 0.1333333333333333 0  0.7333333333333333 0.1333333333333333 0  0.7666666666666667 0.1333333333333333 0  0.8 0.1333333333333333 0  0.8333333333333334 0.1333333333333333 0  0.8666666666666667 0.1333333333333333 0  0.9 0.1333333333333333 0  0.9333333333333333 0.1333333333333333 0  0.9666666666666667 0.1333333333333333 0  1 0.1333333333333333 0  0 0.1666666666666667 0  0.03333333333333333 0.1666666666666667 0  0.06666666666666667 0.1666666666666667 0  0.1 0.1666666666666667 0  0.1333333333333333 0.1666666666666667 0  0.1666666666666667 0.1666666666666667 0  0.2 0.1666666666666667 0  0.2333333333333333 0.1666666666666667 0  0.2666666666666667 0.1666666666666667 0  0.3 0.1666666666666667 0  0.3333333333333333 0.1666666666666667 0  0.3666666666666666 0.1666666666666667 0  0.4 0.1666666666666667 0  0.4333333333333333 0.1666666666666667 0  0.4666666666666667 0.1666666666666667 0  0.5 0.1666666666666667 0  0.5333333333333333 0.1666666666666667 0  0.5666666666666667 0.1666666666666667 0  0.6 0.1666666666666667 0  0.6333333333333333 0.1666666666666667 0  0.6666666666666666 0.1666666666666667 0  0.7 0.1666666666666667 0  0.7333333333333333 0.1666666666666667 0  0.7666666666666667 0.1666666666666667 0  0.8 0.1666666666666667 0  0.8333333333333334 0.1666666666666667 0  0.8666666666666667 0.1666666666666667 0  0.9 0.1666666666666667 0  0.9333333333333333 0.1666666666666667 0  0.9666666666666667 0.1666666666666667 0  1 0.1666666666666667 0  0 0.2 0  0.03333333333333333 0.2 0  0.06666666666666667 0.2 0  0.1 0.2 0  0.1333333333333333 0.2 0  0.1666666666666667 0.2 0  0.2 0.2 0  0.2333333333333333 0.2 0  0.2666666666666667 0.2 0  0.3 0.2 0  0.3333333333333333 0.2 0  0.3666666666666666 0.2 0  0.4 0.2 0  0.4333333333333333 0.2 0  0.4666666666666667 0.2 0  0.5 0.2 0  0.5333333333333333 0.2 0  0.5666666666666667 0.2 0  0.6 0.2 0  0.6333333333333333 0.2 0  0.6666666666666666 0.2 0  0.7 0.2 0  0.7333333333333333 0.2 0  0.7666666666666667 0.2 0  0.8 0.2 0  0.8333333333333334 0.2 0  0.8666666666666667 0.2 0  0.9 0.2 0  0.9333333333333333 0.2 0  0.9666666666666667 0.2 0  1 0.2 0  0 0.2333333333333333 0  0.03333333333333333 0.2333333333333333 0  0.06666666666666667 0.2333333333333333 0  0.1 0.2333333333333333 0  0.1333333333333333 0.2333333333333333 0  0.1666666666666667 0.2333333333333333 0  0.2 0.2333333333333333 0  0.2333333333333333 0.2333333333333333 0  0.2666666666666667 0.2333333333333333 0  0.3 0.2333333333333333 0  0.3333333333333333 0.2333333333333333 0  0.3666666666666666 0.2333333333333333 0  0.4 0.2333333333333333 0  0.4333333333333333 0.2333333333333333 0  0.4666666666666667 0.2333333333333333 0  0.5 0.2333333333333333 0  0.5333333333333333 0.2333333333333333 0  0.5666666666666667 0.2333333333333333 0  0.6 0.2333333333333333 0  0.6333333333333333 0.2333333333333333 0  0.6666666666666666 0.2333333333333333 0  0.7 0.2333333333333333 0  0.7333333333333333 0.2333333333333333 0  0.7666666666666667 0.2333333333333333 0  0.8 0.2333333333333333 0  0.8333333333333334 0.2333333333333333 0  0.8666666666666667 0.2333333333333333 0  0.9 0.2333333333333333 0  0.9333333333333333 0.2333333333333333 0  0.9666666666666667 0.2333333333333333 0  1 0.2333333333333333 0  0 0.2666666666666667 0  0.03333333333333333 0.2666666666666667 0  0.06666666666666667 0.2666666666666667 0  0.1 0.2666666666666667 0  0.1333333333333333 0.2666666666666667 0  0.1666666666666667 0.2666666666666667 0  0.2 0.2666666666666667 0  0.2333333333333333 0.2666666666666667 0  0.2666666666666667 0.2666666666666667 0  0.3 0.2666666666666667 0  0.3333333333333333 0.2666666666666667 0  0.3666666666666666 0.2666666666666667 0  0.4 0.2666666666666667 0  0.4333333333333333 0.2666666666666667 0  0.4666666666666667 0.2666666666666667 0  0.5 0.2666666666666667 0  0.5333333333333333 0.2666666666666667 0  0.5666666666666667 0.2666666666666667 0  0.6 0.2666666666666667 0  0.6333333333333333 0.2666666666666667 0  0.6666666666666666 0.2666666666666667 0  0.7 0.2666666666666667 0  0.7333333333333333 0.2666666666666667 0  0.7666666666666667 0.2666666666666667 0  0.8 0.2666666666666667 0  0.8333333333333334 0.2666666666666667 0  0.8666666666666667 0.2666666666666667 0  0.9 0.2666666666666667 0  0.9333333333333333 0.2666666666666667 0  0.9666666666666667 0.2666666666666667 0  1 0.2666666666666667 0  0 0.3 0  0.03333333333333333 0.3 0  0.06666666666666667 0.3 0  0.1 0.3 0  0.1333333333333333 0.3 0  0.1666666666666667 0.3 0  0.2 0.3 0  0.2333333333333333 0.3 0  0.2666666666666667 0.3 0  0.3 0.3 0  0.3333333333333333 0.3 0  0.3666666666666666 0.3 0  0.4 0.3 0  0.4333333333333333 0.3 0  0.4666666666666667 0.3 0  0.5 0.3 0  0.5333333333333333 0.3 0  0.5666666666666667 0.3 0  0.6 0.3 0  0.6333333333333333 0.3 0  0.6666666666666666 0.3 0  0.7 0.3 0  0.7333333333333333 0.3 0  0.7666666666666667 0.3 0  0.8 0.3 0  0.8333333333333334 0.3 0  0.8666666666666667 0.3 0  0.9 0.3 0  0.9333333333333333 0.3 0  0.9666666666666667 0.3 0  1 0.3 0  0 0.3333333333333333 0  0.03333333333333333 0.3333333333333333 0  0.06666666666666667 0.3333333333333333 0  0.1 0.3333333333333333 0  0.1333333333333333 0.3333333333333333 0  0.1666666666666667 0.3333333333333333 0  0.2 0.3333333333333333 0  0.2333333333333333 0.3333333333333333 0  0.2666666666666667 0.3333333333333333 0  0.3 0.3333333333333333 0  0.3333333333333333 0.3333333333333333 0  0.3666666666666666 0.3333333333333333 0  0.4 0.3333333333333333 0  0.4333333333333333 0.3333333333333333 0  0.4666666666666667 0.3333333333333333 0  0.5 0.3333333333333333 0  0.5333333333333333 0.33333333333333
[...]
<PointData  Vectors="u_f"> 
<DataArray  type="Float64"  Name="u_f"  NumberOfComponents="3" format="ascii">2.7098777897636636e-06 4.4359064522731667e-09 0.0000000000000000e+00  2.7098777917352311e-06 4.4359059026368754e-09 0.0000000000000000e+00  2.7098777943037602e-06 4.4359067353041438e-09 0.0000000000000000e+00  2.7098777912076583e-06 4.4359083662694719e-09 0.0000000000000000e+00  2.7098777926229758e-06 4.4359079812150704e-09 0.0000000000000000e+00  2.7098777946374234e-06 4.4359073196349047e-09 0.0000000000000000e+00  2.7098777924868000e-06 4.4359076674469616e-09 0.0000000000000000e+00  2.7098777953738678e-06 4.4359049550441766e-09 0.0000000000000000e+00  2.7098777921811634e-06 4.4359057857598812e-09 0.0000000000000000e+00  2.7098777914487848e-06 4.4359052780822139e-09 0.0000000000000000e+00  2.7098777899185419e-06 4.4359048723737610e-09 0.0000000000000000e+00  2.7098777927915150e-06 4.4358973879093239e-09 0.0000000000000000e+00  2.7098777886025373e-06 4.4359038006399135e-09 0.0000000000000000e+00  2.7098777925509306e-06 4.4359023274260015e-09 0.0000000000000000e+00  2.7098777906605157e-06 4.4359011769790763e-09 0.0000000000000000e+00  2.7098777901772867e-06 4.4359030790491576e-09 0.0000000000000000e+00  2.7098777922875779e-06 4.4359025591200058e-09 0.0000000000000000e+00  2.7098777906094497e-06 4.4359019012803376e-09 0.0000000000000000e+00  2.7098777906125397e-06 4.4359019240485832e-09 0.0000000000000000e+00  2.7098777901339187e-06 4.4359032318674538e-09 0.0000000000000000e+00  2.7098777926504061e-06 4.4359025186250546e-09 0.0000000000000000e+00  2.7098777892878073e-06 4.4359032801144505e-09 0.0000000000000000e+00  2.7098777952646886e-06 4.4359108565192318e-09 0.0000000000000000e+00  2.7098777962684972e-06 4.4359053860687503e-09 0.0000000000000000e+00  2.7098777923034614e-06 4.4359056505598703e-09 0.0000000000000000e+00  2.7098777913374373e-06 4.4359020902025662e-09 0.0000000000000000e+00  2.7098777903507591e-06 4.4359017187549019e-09 0.0000000000000000e+00  2.7098777897615494e-06 4.4359035901420617e-09 0.0000000000000000e+00  2.7098777927149161e-06 4.4359056179253849e-09 0.0000000000000000e+00  2.7098777902726965e-06 4.4359040134687999e-09 0.0000000000000000e+00  2.7098777897637178e-06 -1.0317147675189703e-09 0.0000000000000000e+00  4.1705447321976452e-04 9.5700723854895073e-09 0.0000000000000000e+00  4.1705447322250733e-04 9.5700719333772014e-09 0.0000000000000000e+00  4.1705447321654021e-04 9.5700705006040304e-09 0.0000000000000000e+00  4.1705447321978479e-04 9.5700695092095639e-09 0.0000000000000000e+00  4.1705447322022194e-04 9.5700765952297026e-09 0.0000000000000000e+00  4.1705447322099151e-04 9.5700735479710766e-09 0.0000000000000000e+00  4.1705447322084189e-04 9.5700719354371855e-09 0.0000000000000000e+00  4.1705447322007080e-04 9.5700716183080500e-09 0.0000000000000000e+00  4.1705447321955592e-04 9.5700705396353086e-09 0.0000000000000000e+00  4.1705447321889293e-04 9.5700701165796209e-09 0.0000000000000000e+00  4.1705447321994569e-04 9.5700760299266899e-09 0.0000000000000000e+00  4.1705447321799304e-04 9.5700695917173492e-09 0.0000000000000000e+00  4.1705447321647320e-04 9.5700693270635989e-09 0.0000000000000000e+00  4.1705447321952827e-04 9.5700712784106690e-09 0.0000000000000000e+00  4.1705447321921645e-04 9.5700717180546499e-09 0.0000000000000000e+00  4.1705447321925126e-04 9.5700706244199185e-09 0.0000000000000000e+00  4.1705447321899994e-04 9.5700700978229233e-09 0.0000000000000000e+00  4.1705447321892675e-04 9.5700700159656593e-09 0.0000000000000000e+00  4.1705447321891125e-04 9.5700700391675858e-09 0.0000000000000000e+00  4.1705447321895787e-04 9.5700699954742383e-09 0.0000000000000000e+00  4.1705447321960796e-04 9.5700720005977361e-09 0.0000000000000000e+00  4.1705447321955602e-04 9.5700705518867932e-09 0.0000000000000000e+00  4.1705447322152971e-04 9.5700763581146875e-09 0.0000000000000000e+00  4.1705447322436468e-04 9.5700737939765496e-09 0.0000000000000000e+00  4.1705447321908700e-04 9.5700696651178363e-09 0.0000000000000000e+00  4.1705447321883676e-04 9.5700701288311055e-09 0.0000000000000000e+00  4.1705447321894876e-04 9.5700700527201130e-09 0.0000000000000000e+00  4.1705447321903593e-04 9.5700700154235582e-09 0.0000000000000000e+00  4.1705447321964352e-04 9.5700708269488843e-09 0.0000000000000000e+00  4.1705447321913622e-04 9.5700713318618361e-09 0.0000000000000000e+00  4.1705447321976473e-04 -3.2126046260240071e-09 0.0000000000000000e+00  7.5928656929401467e-04 1.3064436899055260e-08 0.0000000000000000e+00  7.5928656929489472e-04 1.3064436747917477e-08 0.0000000000000000e+00  7.5928656929457369e-04 1.3064436591575523e-08 0.0000000000000000e+00  7.5928656929432703e-04 1.3064435153923443e-08 0.0000000000000000e+00  7.5928656929381735e-04 1.3064433073881575e-08 0.0000000000000000e+00  7.5928656929292646e-04 1.3064437010185982e-08 0.0000000000000000e+00  7.5928656929628228e-04 1.3064436547556915e-08 0.0000000000000000e+00  7.5928656929389845e-04 1.3064436028549335e-08 0.0000000000000000e+00  7.5928656929393206e-04 1.3064435286412948e-08 0.0000000000000000e+00  7.5928656929506624e-04 1.3064434507955788e-08 0.0000000000000000e+00  7.5928656929402758e-04 1.3064435988759115e-08 0.0000000000000000e+00  7.5928656929087342e-04 1.3064432690507687e-08 0.0000000000000000e+00  7.5928656929410835e-04 1.3064434585259403e-08 0.0000000000000000e+00  7.5928656929387872e-04 1.3064435238599632e-08 0.0000000000000000e+00  7.5928656929495002e-04 1.3064435684531986e-08 0.0000000000000000e+00  7.5928656929456436e-04 1.3064434928409391e-08 0.0000000000000000e+00  7.5928656929384912e-04 1.3064433833256776e-08 0.0000000000000000e+00  7.5928656929272675e-04 1.3064433409875828e-08 0.0000000000000000e+00  7.5928656929277977e-04 1.3064433397732764e-08 0.0000000000000000e+00  7.5928656929272393e-04 1.3064433434920898e-08 0.0000000000000000e+00  7.5928656929195035e-04 1.3064435229817595e-08 0.0000000000000000e+00  7.5928656929506603e-04 1.3064434392162996e-08 0.0000000000000000e+00  7.5928656929536255e-04 1.3064438395687938e-08 0.0000000000000000e+00  7.5928656929767353e-04 1.3064436531944404e-08 0.0000000000000000e+00  7.5928656929430405e-04 1.3064435423022422e-08 0.0000000000000000e+00  7.5928656929503925e-04 1.3064434304234200e-08 0.0000000000000000e+00  7.5928656929275678e-04 1.3064433266435881e-08 0.0000000000000000e+00  7.5928656929268414e-04 1.3064432683026692e-08 0.0000000000000000e+00  7.5928656929150789e-04 1.3064435400362596e-08 0.0000000000000000e+00  7.5928656929656548e-04 1.3064436273687446e-08 0.0000000000000000e+00  7.5928656929401489e-04 -4.8440604217004179e-09 0.0000000000000000e+00  9.7023113369203249e-04 1.4325253665150445e-08 0.0000000000000000e+00  9.7023113369292847e-04 1.4325249872394405e-08 0.0000000000000000e+00  9.7023113369291481e-04 1.4325254909597698e-08 0.0000000000000000e+00  9.7023113369331337e-04 1.4325254355787229e-08 0.0000000000000000e+00  9.7023113369376179e-04 1.4325255672442347e-08 0.0000000000000000e+00  9.7023113369365923e-04 1.4325254725717010e-08 0.0000000000000000e+00  9.7023113369221485e-04 1.4325256260296765e-08 0.0000000000000000e+00  9.7023113369554921e-04 1.4325252852649337e-08 0.0000000000000000e+00  9.7023113369184514e-04 1.4325253126952486e-08 0.0000000000000000e+00  9.7023113369637363e-04 1.4325257712693995e-08 0.0000000000000000e+00  9.7023113369002043e-04 1.4325250416447055e-08 0.0000000000000000e+00  9.7023113369003387e-04 1.4325252167433564e-08 0.0000000000000000e+00  9.7023113369550844e-04 1.4325256660584207e-08 0.0000000000000000e+00  9.7023113369362085e-04 1.4325251853882295e-08 0.0000000000000000e+00  9.7023113369238941e-04 1.4325253935116786e-08 0.0000000000000000e+00  9.7023113369278948e-04 1.4325252042967154e-08 0.0000000000000000e+00  9.7023113369267889e-04 1.4325252015428419e-08 0.0000000000000000e+00  9.7023113369269407e-04 1.4325252033209335e-08 0.0000000000000000e+00  9.7023113369268800e-04 1.4325252036245101e-08 0.0000000000000000e+00  9.7023113369268626e-04 1.4325252171987213e-08 0.0000000000000000e+00  9.7023113369291893e-04 1.4325251857568583e-08 0.0000000000000000e+00  9.7023113369274026e-04 1.4325252970827373e-08 0.0000000000000000e+00  9.7023113369572333e-04 1.4325248886637790e-08 0.0000000000000000e+00  9.7023113368759138e-04 1.4325255100634121e-08 0.0000000000000000e+00  9.7023113369660522e-04 1.4325256120434685e-08 0.0000000000000000e+00  9.7023113369274698e-04 1.4325252060748070e-08 0.0000000000000000e+00  9.7023113369269667e-04 1.4325251878168424e-08 0.0000000000000000e+00  9.7023113369233303e-04 1.4325252224679438e-08 0.0000000000000000e+00  9.7023113369388864e-04 1.4325255439338880e-08 0.0000000000000000e+00  9.7023113369366053e-04 1.4325252525220281e-08 0.0000000000000000e+00  9.7023113369203249e-04 -5.6495408677689821e-09 0.0000000000000000e+00  1.0134139308401405e-03 1.3125514952911158e-08 0.0000000000000000e+00  1.0134139308375556e-03 1.3125515725730466e-08 0.0000000000000000e+00  1.0134139308409142e-03 1.3125514026677242e-08 0.0000000000000000e+00  1.0134139308415669e-03 1.3125516810800000e-08 0.0000000000000000e+00  1.0134139308420179e-03 1.3125517796448195e-08 0.0000000000000000e+00  1.0134139308386940e-03 1.3125517328831798e-08 0.0000000000000000e+00  1.0134139308427643e-03 1.3125516592550103e-08 0.0000000000000000e+00  1.0134139308410899e-03 1.3125516676792612e-08 0.0000000000000000e+00  1.0134139308405074e-03 1.3125515445030524e-08 0.0000000000000000e+00  1.0134139308417079e-03 1.3125513331703649e-08 0.0000000000000000e+00  1.0134139308402329e-03 1.3125516033969144e-08 0.0000000000000000e+00  1.0134139308383958e-03 1.3125516077011970e-08 0.0000000000000000e+00  1.0134139308394397e-03 1.3125515350271254e-08 0.0000000000000000e+00  1.0134139308423597e-03 1.3125515724646264e-08 0.0000000000000000e+00  1.0134139308377796e-03 1.3125515453812561e-08 0.0000000000000000e+00  1.0134139308406755e-03 1.3125516712571283e-08 0.0000000000000000e+00  1.0134139308408635e-03 1.3125516738158455e-08 0.0000000000000000e+00  1.0134139308407160e-03 1.3125516669528457e-08 0.0000000000000000e+00  1.0134139308407369e-03 1.3125516660421159e-08 0.0000000000000000e+00  1.0134139308406666e-03 1.3125516735014268e-08 0.0000000000000000e+00  1.0134139308404153e-03 1.3125516047738511e-08 0.0000000000000000e+00  1.0134139308407945e-03 1.3125517213797948e-08 0.0000000000000000e+00  1.0134139308417105e-03 1.3125518967928643e-08 0.0000000000000000e+00  1.0134139308400811e-03 1.3125518368473262e-08 0.0000000000000000e+00  1.0134139308415752e-03 1.3125516360964519e-08 0.0000000000000000e+00  1.0134139308407477e-03 1.3125516583225964e-08 0.0000000000000000e+00  1.0134139308408531e-03 1.3125516602416343e-08 0.0000000000000000e+00  1.0134139308400102e-03 1.3125515406541347e-08 0.0000000000000000e+00  1.0134139308410452e-03 1.3125514383813437e-08 0.0000000000000000e+00  1.0134139308402416e-03 1.3125515232201637e-08 0.0000000000000000e+00  1.0134139308401410e-03 -5.4867541449107671e-09 0.0000000000000000e+00  8.8136825126215528e-04 9.6501831735014768e-09 0.0000000000000000e+00  8.8136825126674113e-04 9.6501806628145059e-09 0.0000000000000000e+00  8.8136825126274943e-04 9.6501820356312967e-09 0.0000000000000000e+00  8.8136825126496911e-04 9.6501794140304437e-09 0.0000000000000000e+00  8.8136825126236746e-04 9.6501803835240263e-09 0.0000000000000000e+00  8.8136825126754398e-04 9.6501824804794481e-09 0.0000000000000000e+00  8.8136825126619741e-04 9.6501779415754732e-09 0.0000000000000000e+00  8.8136825126177050e-04 9.6501764014662872e-09 0.0000000000000000e+00  8.8136825126219030e-04 9.6501775891013469e-09 0.0000000000000000e+00  8.8136825126172572e-04 9.6501779484059469e-09 0.0000000000000000e+00  8.8136825126371718e-04 9.6501820986234430e-09 0.0000000000000000e+00  8.8136825126342315e-04 9.6501732273560070e-09 0.0000000000000000e+00  8.8136825126081965e-04 9.6501767407131470e-09 0.0000000000000000e+00  8.8136825126596777e-04 9.6501780326484557e-09 0.0000000000000000e+00  8.8136825126122937e-04 9.6501784356464032e-09 0.0000000000000000e+00  8.8136825126364682e-04 9.6501792262466274e-09 0.0000000000000000e+00  8.8136825126347270e-04 9.6501789108522154e-09 0.0000000000000000e+00  8.8136825126340591e-04 9.6501788262844460e-09 0.0000000000000000e+00  8.8136825126336211e-04 9.6501788284528503e-09 0.0000000000000000e+00  8.8136825126332861e-04 9.6501789215858169e-09 0.0000000000000000e+00  8.8136825126433128e-04 9.6501778679581457e-09 0.0000000000000000e+00  8.8136825126117581e-04 9.6501790881192706e-09 0.0000000000000000e+00  8.8136825126466109e-04 9.6501816462942966e-09 0.0000000000000000e+00  8.8136825126525523e-04 9.6501784399832119e-09 0.0000000000000000e+00  8.8136825126651475e-04 9.6501803781030154e-09 0.0000000000000000e+00  8.8136825126176399e-04 9.6501788407043348e-09 0.0000000000000000e+00  8.8136825126353992e-04 9.6501791824448596e-09 0.0000000000000000e+00  8.8136825126408191e-04 9.6501776191337471e-09 0.0000000000000000e+00  8.8136825126184759e-04 9.6501776929679151e-09 0.0000000000000000e+00  8.8136825126340634e-04 9.6501797757202884e-09 0.0000000000000000e+00  8.8136825126215572e-04 -4.3742683643247006e-09 0.0000000000000000e+00  5.9692598113150785e-04 4.4790548728193373e-09 0.0000000000000000e+00  5.9692598112852466e-04 4.4790523029349279e-09 0.0000000000000000e+00  5.9692598113141363e-04 4.4790545614906835e-09 0.0000000000000000e+00  5.9692598113108490e-04 4.4790547451545315e-09 0.0000000000000000e+00  5.9692598113088259e-04 4.4790604127671781e-09 0.0000000000000000e+00  5.9692598112989813e-04 4.4790578809382649e-09 0.0000000000000000e+00  5.9692598113244514e-04 4.4790578216324060e-09 0.0000000000000000e+00  5.9692598113248309e-04 4.4790595740283774e-09 0.0000000000000000e+00  5.9692598113054909e-04 4.4790587464568592e-09 0.0000000000000000e+00  5.9692598113188526e-04 4.4790597892967188e-09 0.0000000000000000e+00  5.9692598113170159e-04 4.4790558907225470e-09 0.0000000000000000e+00  5.9692598113022415e-04 4.4790512189495958e-09 0.0000000000000000e+00  5.9692598112563689e-04 4.4790590909620995e-09 0.0000000000000000e+00  5.9692598113314152e-04 4.4790589805903183e-09 0.0000000000000000e+00  5.9692598113065968e-04 4.4790590490576855e-09 0.0000000000000000e+00  5.9692598113105801e-04 4.4790593305165695e-09 0.0000000000000000e+00  5.9692598113099881e-04 4.4790593712825712e-09 0.0000000000000000e+00  5.9692598113098613e-04 4.4790593918282023e-09 0.0000000000000000e+00  5.9692598113096802e-04 4.4790594059228306e-09 0.0000000000000000e+00  5.9692598113103947e-04 4.4790593427138439e-09 0.0000000000000000e+00  5.9692598113130239e-04 4.4790593118140820e-09 0.0000000000000000e+00  5.9692598113136744e-04 4.4790595107109706e-09 0.0000000000000000e+00  5.9692598113086437e-04 4.4790511288523953e-09 0.0000000000000000e+00  5.9692598112924035e-04 4.4790577500208525e-09 0.0000000000000000e+00  5.9692598113313534e-04 4.4790577895942318e-09 0.0000000000000000e+00  5.9692598113019163e-04 4.4790588454987276e-09 0.0000000000000000e+00  5.9692598113114583e-04 4.4790595680652655e-09 0.0000000000000000e+00  5.9692598113152856e-04 4.4790584853809760e-09 0.0000000000000000e+00  5.9692598113061999e-04 4.4790598333153270e-09 0.0000000000000000e+00  5.9692598113116925e-04 4.4790597856646415e-09 0.0000000000000000e+00  5.9692598113150796e-04 -2.4946441455619089e-09 0.0000000000000000e+00  2.0926976925993531e-04 -1.4994750530757280e-09 0.0000000000000000e+00  2.0926976926670995e-04 -1.4994742910442310e-09 0.0000000000000000e+00  2.0926976926310655e-04 -1.4994777761579044e-09 0.0000000000000000e+00  2.0926976927016416e-04 -1.4994742428921020e-09 0.0000000000000000e+00  2.0926976926482357e-04 -1.4994789029421172e-09 0.0000000000000000e+00  2.0926976926236783e-04 -1.4994760663575258e-09 0.0000000000000000e+00  2.0926976926729677e-04 -1.4994792616097484e-09 0.0000000000000000e+00  2.0926976926408146e-04 -1.4994781727319540e-09 0.0000000000000000e+00  2.0926976926855792e-04 -1.4994751995649940e-09 0.0000000000000000e+00  2.0926976926593474e-04 -1.4994745961793799e-09 0.0000000000000000e+00  2.0926976926643565e-04 -1.4994823329647676e-09 0.0000000000000000e+00  2.0926976926127446e-04 -1.4994767927865339e-09 0.0000000000000000e+00  2.0926976926220406e-04 -1.4994812595233017e-09 0.0000000000000000e+00  2.0926976926910736e-04 -1.4994763543080703e-09 0.0000000000000000e+00  2.0926976926847140e-04 -1.4994755440702343e-09 0.0000000000000000e+00  2.0926976926645250e-04 -1.4994763121732634e-09 0.0000000000000000e+00  2.0926976926630784e-04 -1.4994763588075093e-09 0.0000000000000000e+00  2.0926976926633362e-04 -1.4994763489819271e-09 0.0000000000000000e+00  2.0926976926633715e-04 -1.4994763728208224e-09 0.0000000000000000e+00  2.0926976926630175e-04 -1.4994762605110299e-09 0.0000000000000000e+00  2.0926976926632874e-04 -1.4994761496920153e-09 0.0000000000000000e+00  2.0926976926542384e-04 -1.4994771469682786e-09 0.0000000000000000e+00  2.0926976926418305e-04 -1.4994722596830407e-09 0.0000000000000000e+00  2.0926976926469263e-04 -1.4994793018878591e-09 0.0000000000000000e+00  2.0926976926502466e-04 -1.4994779667741988e-09 0.0000000000000000e+00  2.0926976926863687e-04 -1.4994753531015741e-09 0.0000000000000000e+00  2.0926976926640144e-04 -1.4994760543499868e-09 0.0000000000000000e+00  2.0926976926651620e-04 -1.4994758172620767e-09 0.0000000000000000e+00  2.0926976926569495e-04 -1.4994745514424878e-09 0.0000000000000000e+00  2.0926976926640938e-04 -1.4994823642575528e-09 0.0000000000000000e+00  2.0926976925993528e-04 -1.6932586725044118e-10 0.0000000000000000e+00  -2.1457109715306228e-04 -7.2382821756766108e-09 0.0000000000000000e+00  -2.1457109715181263e-04 -7.2382862760208069e-09 0.0000000000000000e+00  -2.1457109715247350e-04 -7.2382821050950494e-09 0.0000000000000000e+00  -2.1457109714882364e-04 -7.2382845532235549e-09 0.0000000000000000e+00  -2.1457109715392904e-04 -7.2382804146070220e-09 0.0000000000000000e+00  -2.1457109715078150e-04 -7.2382833579990799e-09 0.0000000000000000e+00  -2.1457109715122596e-04 -7.2382853183992381e-09 0.0000000000000000e+00  -2.1457109715310798e-04 -7.2382844945140072e-09 0.0000000000000000e+00  -2.1457109715116487e-04 -7.2382851035103675e-09 0.0000000000000000e+00  -2.1457109715215144e-04 -7.2382871427320236e-09 0.0000000000000000e+00  -2.1457109715499644e-04 -7.2382851090940087e-09 0.0000000000000000e+00  -2.1457109715366390e-04 -7.2382787512782591e-09 0.0000000000000000e+00  -2.1457109714776215e-04 -7.2382807044684729e-09 0.0000000000000000e+00  -2.1457109715016599e-04 -7.2382828393167606e-09 0.0000000000000000e+00  -2.1457109715118308e-04 -7.2382850142263186e-09 0.0000000000000000e+00  -2.1457109715260718e-04 -7.2382863091973934e-09 0.0000000000000000e+00  -2.1457109715237674e-04 -7.2382863517523287e-09 0.0000000000000000e+00  -2.1457109715243908e-04 -7.2382863530533713e-09 0.0000000000000000e+00  -2.1457109715239891e-04 -7.2382862795986741e-09 0.0000000000000000e+00  -2.1457109715231938e-04 -7.2382865582928425e-09 0.0000000000000000e+00  -2.1457109715235202e-04 -7.2382865929331019e-09 0.0000000000000000e+00  -2.1457109715516785e-04 -7.2382837373072099e-09 0.0000000000000000e+00  -2.1457109715092054e-04 -7.2382795584667765e-09 0.0000000000000000e+00  -2.1457109714768013e-04 -7.2382822020769337e-09 0.0000000000000000e+00  -2.1457109715268405e-04 -7.2382849978006557e-09 0.0000000000000000e+00  -2.1457109715213013e-04 -7.2382862550414949e-09 0.0000000000000000e+00  -2.1457109715263873e-04 -7.2382860788044318e-09 0.0000000000000000e+00  -2.1457109715157562e-04 -7.2382843291731759e-09 0.0000000000000000e+00  -2.1457109715060737e-04 -7.2382848349534894e-09 0.0000000000000000e+00  -2.1457109715482947e-04 -7.2382836137623724e-09 0.0000000000000000e+00  -2.1457109715306233e-04 2.1945300192190778e-09 0.0000000000000000e+00  -6.0131066951072179e-04 -1.1721352569755636e-08 0.0000000000000000e+00  -6.0131066951108576e-04 -1.1721350938898728e-08 0.0000000000000000e+00  -6.0131066950972660e-04 -1.1721353554211209e-08 0.0000000000000000e+00  -6.0131066950967012e-04 -1.1721351579879052e-08 0