<?xml version="1.0"?>
<VTKFile type="UnstructuredGrid"  version="0.1"  >
<UnstructuredGrid>
<Piece  NumberOfPoints="961" NumberOfCells="1800">
<Points>
<DataArray  type="Float64"  NumberOfComponents="3"  format="ascii">0 0 0  0.03333333333333333 0 0  0.06666666666666667 0 0  0.1 0 0  0.1333333333333333 0 0  0.1666666666666667 0 0  0.2 0 0  0.2333333333333333 0 0  0.2666666666666667 0 0  0.3 0 0  0.3333333333333333 0 0  0.3666666666666666 0 0  0.4 0 0  0.4333333333333333 0 0  0.4666666666666667 0 0  0.5 0 0  0.5333333333333333 0 0  0.5666666666666667 0 0  0.6 0 0  0.6333333333333333 0 0  0.6666666666666666 0 0  0.7 0 0  0.7333333333333333 0 0  0.7666666666666667 0 0  0.8 0 0  0.8333333333333334 0 0  0.8666666666666667 0 0  0.9 0 0  0.9333333333333333 0 0  0.9666666666666667 0 0  1 0 0  0 0.03333333333333333 0  0.03333333333333333 0.03333333333333333 0  0.06666666666666667 0.03333333333333333 0  0.1 0.03333333333333333 0  0.1333333333333333 0.03333333333333333 0  0.1666666666666667 0.03333333333333333 0  0.2 0.03333333333333333 0  0.2333333333333333 0.03333333333333333 0  0.2666666666666667 0.03333333333333333 0  0.3 0.03333333333333333 0  0.3333333333333333 0.03333333333333333 0  0.3666666666666666 0.03333333333333333 0  0.4 0.03333333333333333 0  0.4333333333333333 0.03333333333333333 0  0.4666666666666667 0.03333333333333333 0  0.5 0.03333333333333333 0  0.5333333333333333 0.03333333333333333 0  0.5666666666666667 0.03333333333333333 0  0.6 0.03333333333333333 0  0.6333333333333333 0.03333333333333333 0  0.6666666666666666 0.03333333333333333 0  0.7 0.03333333333333333 0  0.7333333333333333 0.03333333333333333 0  0.7666666666666667 0.03333333333333333 0  0.8 0.03333333333333333 0  0.8333333333333334 0.03333333333333333 0  0.8666666666666667 0.03333333333333333 0  0.9 0.03333333333333333 0  0.9333333333333333 0.03333333333333333 0  0.9666666666666667 0.03333333333333333 0  1 0.03333333333333333 0  0 0.06666666666666667 0  0.03333333333333333 0.06666666666666667 0  0.06666666666666667 0.06666666666666667 0  0.1 0.06666666666666667 0  0.1333333333333333 0.06666666666666667 0  0.1666666666666667 0.06666666666666667 0  0.2 0.06666666666666667 0  0.2333333333333333 0.06666666666666667 0  0.2666666666666667 0.06666666666666667 0  0.3 0.06666666666666667 0  0.3333333333333333 0.06666666666666667 0  0.3666666666666666 0.06666666666666667 0  0.4 0.06666666666666667 0  0.4333333333333333 0.06666666666666667 0  0.4666666666666667 0.06666666666666667 0  0.5 0.06666666666666667 0  0.5333333333333333 0.06666666666666667 0  0.5666666666666667 0.06666666666666667 0  0.6 0.06666666666666667 0  0.6333333333333333 0.06666666666666667 0  0.6666666666666666 0.06666666666666667 0  0.7 0.06666666666666667 0  0.7333333333333333 0.06666666666666667 0  0.7666666666666667 0.06666666666666667 0  0.8 0.06666666666666667 0  0.8333333333333334 0.06666666666666667 0  0.8666666666666667 0.06666666666666667 0  0.9 0.06666666666666667 0  0.9333333333333333 0.06666666666666667 0  0.9666666666666667 0.06666666666666667 0  1 0.06666666666666667 0  0 0.1 0  0.03333333333333333 0.1 0  0.06666666666666667 0.1 0  0.1 0.1 0  0.1333333333333333 0.1 0  0.1666666666666667 0.1 0  0.2 0.1 0  0.2333333333333333 0.1 0  0.2666666666666667 0.1 0  0.3 0.1 0  0.3333333333333333 0.1 0  0.3666666666666666 0.1 0  0.4 0.1 0  0.4333333333333333 0.1 0  0.4666666666666667 0.1 0  0.5 0.1 0  0.5333333333333333 0.1 0  0.5666666666666667 0.1 0  0.6 0.1 0  0.6333333333333333 0.1 0  0.6666666666666666 0.1 0  0.7 0.1 0  0.7333333333333333 0.1 0  0.7666666666666667 0.1 0  0.8 0.1 0  0.8333333333333334 0.1 0  0.8666666666666667 0.1 0  0.9 0.1 0  0.9333333333333333 0.1 0  0.9666666666666667 0.1 0  1 0.1 0  0 0.1333333333333333 0  0.03333333333333333 0.1333333333333333 0  0.06666666666666667 0.1333333333333333 0  0.1 0.1333333333333333 0  0.1333333333333333 0.1333333333333333 0  0.1666666666666667 0.1333333333333333 0  0.2 0.1333333333333333 0  0.2333333333333333 0.1333333333333333 0  0.2666666666666667 0.1333333333333333 0  0.3 0.1333333333333333 0  0.3333333333333333 0.1333333333333333 0  0.3666666666666666 0.1333333333333333 0  0.4 0.1333333333333333 0  0.4333333333333333 0.1333333333333333 0  0.4666666666666667 0.1333333333333333 0  0.5 0.1333333333333333 0  0.5333333333333333 0.1333333333333333 0  0.5666666666666667 0.1333333333333333 0  0.6 0.1333333333333333 0  0.6333333333333333 0.1333333333333333 0  0.6666666666666666 0.1333333333333333 0  0.7 0.1333333333333333 0  0.7333333333333333 0.1333333333333333 0  0.7666666666666667 0.1333333333333333 0  0.8 0.1333333333333333 0  0.8333333333333334 0.1333333333333333 0  0.8666666666666667 0.1333333333333333 0  0.9 0.1333333333333333 0  0.9333333333333333 0.1333333333333333 0  0.9666666666666667 0.1333333333333333 0  1 0.1333333333333333 0  0 0.1666666666666667 0  0.03333333333333333 0.1666666666666667 0  0.06666666666666667 0.1666666666666667 0  0.1 0.1666666666666667 0  0.1333333333333333 0.1666666666666667 0  0.1666666666666667 0.1666666666666667 0  0.2 0.1666666666666667 0  0.2333333333333333 0.1666666666666667 0  0.2666666666666667 0.1666666666666667 0  0.3 0.1666666666666667 0  0.3333333333333333 0.1666666666666667 0  0.3666666666666666 0.1666666666666667 0  0.4 0.1666666666666667 0  0.4333333333333333 0.1666666666666667 0  0.4666666666666667 0.1666666666666667 0  0.5 0.1666666666666667 0  0.5333333333333333 0.1666666666666667 0  0.5666666666666667 0.1666666666666667 0  0.6 0.1666666666666667 0  0.6333333333333333 0.1666666666666667 0  0.6666666666666666 0.1666666666666667 0  0.7 0.1666666666666667 0  0.7333333333333333 0.1666666666666667 0  0.7666666666666667 0.1666666666666667 0  0.8 0.1666666666666667 0  0.8333333333333334 0.1666666666666667 0  0.8666666666666667 0.1666666666666667 0  0.9 0.1666666666666667 0  0.9333333333333333 0.1666666666666667 0  0.9666666666666667 0.1666666666666667 0  1 0.1666666666666667 0  0 0.2 0  0.03333333333333333 0.2 0  0.06666666666666667 0.2 0  0.1 0.2 0  0.1333333333333333 0.2 0  0.1666666666666667 0.2 0  0.2 0.2 0  0.2333333333333333 0.2 0  0.2666666666666667 0.2 0  0.3 0.2 0  0.3333333333333333 0.2 0  0.3666666666666666 0.2 0  0.4 0.2 0  0.4333333333333333 0.2 0  0.4666666666666667 0.2 0  0.5 0.2 0  0.5333333333333333 0.2 0  0.5666666666666667 0.2 0  0.6 0.2 0  0.6333333333333333 0.2 0  0.6666666666666666 0.2 0  0.7 0.2 0  0.7333333333333333 0.2 0  0.7666666666666667 0.2 0  0.8 0.2 0  0.8333333333333334 0.2 0  0.8666666666666667 0.2 0  0.9 0.2 0  0.9333333333333333 0.2 0  0.9666666666666667 0.2 0  1 0.2 0  0 0.2333333333333333 0  0.03333333333333333 0.2333333333333333 0  0.06666666666666667 0.2333333333333333 0  0.1 0.2333333333333333 0  0.1333333333333333 0.2333333333333333 0  0.1666666666666667 0.2333333333333333 0  0.2 0.2333333333333333 0  0.2333333333333333 0.2333333333333333 0  0.2666666666666667 0.2333333333333333 0  0.3 0.2333333333333333 0  0.3333333333333333 0.2333333333333333 0  0.3666666666666666 0.2333333333333333 0  0.4 0.2333333333333333 0  0.4333333333333333 0.2333333333333333 0  0.4666666666666667 0.2333333333333333 0  0.5 0.2333333333333333 0  0.5333333333333333 0.2333333333333333 0  0.5666666666666667 0.2333333333333333 0  0.6 0.2333333333333333 0  0.6333333333333333 0.2333333333333333 0  0.6666666666666666 0.2333333333333333 0  0.7 0.2333333333333333 0  0.7333333333333333 0.2333333333333333 0  0.7666666666666667 0.2333333333333333 0  0.8 0.2333333333333333 0  0.8333333333333334 0.2333333333333333 0  0.8666666666666667 0.2333333333333333 0  0.9 0.2333333333333333 0  0.9333333333333333 0.2333333333333333 0  0.9666666666666667 0.2333333333333333 0  1 0.2333333333333333 0  0 0.2666666666666667 0  0.03333333333333333 0.2666666666666667 0  0.06666666666666667 0.2666666666666667 0  0.1 0.2666666666666667 0  0.1333333333333333 0.2666666666666667 0  0.1666666666666667 0.2666666666666667 0  0.2 0.2666666666666667 0  0.2333333333333333 0.2666666666666667 0  0.2666666666666667 0.2666666666666667 0  0.3 0.2666666666666667 0  0.3333333333333333 0.2666666666666667 0  0.3666666666666666 0.2666666666666667 0  0.4 0.2666666666666667 0  0.4333333333333333 0.2666666666666667 0  0.4666666666666667 0.2666666666666667 0  0.5 0.2666666666666667 0  0.5333333333333333 0.2666666666666667 0  0.5666666666666667 0.2666666666666667 0  0.6 0.2666666666666667 0  0.6333333333333333 0.2666666666666667 0  0.6666666666666666 0.2666666666666667 0  0.7 0.2666666666666667 0  0.7333333333333333 0.2666666666666667 0  0.7666666666666667 0.2666666666666667 0  0.8 0.2666666666666667 0  0.8333333333333334 0.2666666666666667 0  0.8666666666666667 0.2666666666666667 0  0.9 0.2666666666666667 0  0.9333333333333333 0.2666666666666667 0  0.9666666666666667 0.2666666666666667 0  1 0.2666666666666667 0  0 0.3 0  0.03333333333333333 0.3 0  0.06666666666666667 0.3 0  0.1 0.3 0  0.1333333333333333 0.3 0  0.1666666666666667 0.3 0  0.2 0.3 0  0.2333333333333333 0.3 0  0.2666666666666667 0.3 0  0.3 0.3 0  0.3333333333333333 0.3 0  0.3666666666666666 0.3 0  0.4 0.3 0  0.4333333333333333 0.3 0  0.4666666666666667 0.3 0  0.5 0.3 0  0.5333333333333333 0.3 0  0.5666666666666667 0.3 0  0.6 0.3 0  0.6333333333333333 0.3 0  0.6666666666666666 0.3 0  0.7 0.3 0  0.7333333333333333 0.3 0  0.7666666666666667 0.3 0  0.8 0.3 0  0.8333333333333334 0.3 0  0.8666666666666667 0.3 0  0.9 0.3 0  0.9333333333333333 0.3 0  0.9666666666666667 0.3 0  1 0.3 0  0 0.3333333333333333 0  0.03333333333333333 0.3333333333333333 0  0.06666666666666667 0.3333333333333333 0  0.1 0.3333333333333333 0  0.1333333333333333 0.3333333333333333 0  0.1666666666666667 0.3333333333333333 0  0.2 0.3333333333333333 0  0.2333333333333333 0.3333333333333333 0  0.2666666666666667 0.3333333333333333 0  0.3 0.3333333333333333 0  0.3333333333333333 0.3333333333333333 0  0.3666666666666666 0.3333333333333333 0  0.4 0.3333333333333333 0  0.4333333333333333 0.3333333333333333 0  0.4666666666666667 0.3333333333333333 0  0.5 0.3333333333333333 0  0.5333333333333333 0.33333333333333
[...]
<PointData  Vectors="u_f"> 
<DataArray  type="Float64"  Name="u_f"  NumberOfComponents="3" format="ascii">2.7087079779327642e-06 -6.5603160203471164e-10 0.0000000000000000e+00  2.7087079632249654e-06 -6.5602977987033045e-10 0.0000000000000000e+00  2.7087079662574246e-06 -6.5604230657960103e-10 0.0000000000000000e+00  2.7087079645029687e-06 -6.5604119928392227e-10 0.0000000000000000e+00  2.7087079632924570e-06 -6.5603982527450908e-10 0.0000000000000000e+00  2.7087079629817246e-06 -6.5603727566468026e-10 0.0000000000000000e+00  2.7087079658137149e-06 -6.5604234105723011e-10 0.0000000000000000e+00  2.7087079576122134e-06 -6.5603720101736068e-10 0.0000000000000000e+00  2.7087079702012642e-06 -6.5603876893633242e-10 0.0000000000000000e+00  2.7087079599393449e-06 -6.5604427657494843e-10 0.0000000000000000e+00  2.7087079586574385e-06 -6.5603525189290510e-10 0.0000000000000000e+00  2.7087079644606848e-06 -6.5606788426410267e-10 0.0000000000000000e+00  2.7087079467089884e-06 -6.5605102519137107e-10 0.0000000000000000e+00  2.7087079620122310e-06 -6.5603637496372547e-10 0.0000000000000000e+00  2.7087079708859379e-06 -6.5604033338585721e-10 0.0000000000000000e+00  2.7087079591982927e-06 -6.5602809892328223e-10 0.0000000000000000e+00  2.7087079741880925e-06 -6.5602839008577565e-10 0.0000000000000000e+00  2.7087079700569027e-06 -6.5603776182093440e-10 0.0000000000000000e+00  2.7087079665771016e-06 -6.5602887532045795e-10 0.0000000000000000e+00  2.7087079616577511e-06 -6.5603754920888838e-10 0.0000000000000000e+00  2.7087079632558651e-06 -6.5603579627081590e-10 0.0000000000000000e+00  2.7087079609456471e-06 -6.5602711360034788e-10 0.0000000000000000e+00  2.7087079869366837e-06 -6.5600705179439875e-10 0.0000000000000000e+00  2.7087079873798514e-06 -6.5602574772245098e-10 0.0000000000000000e+00  2.7087079588554138e-06 -6.5603323077742526e-10 0.0000000000000000e+00  2.7087079643409889e-06 -6.5605146228747691e-10 0.0000000000000000e+00  2.7087079652809922e-06 -6.5604463344009351e-10 0.0000000000000000e+00  2.7087079581378346e-06 -6.5603888716857933e-10 0.0000000000000000e+00  2.7087079693919073e-06 -6.5603697322648424e-10 0.0000000000000000e+00  2.7087079618702005e-06 -6.5602941546998028e-10 0.0000000000000000e+00  2.7087079779328184e-06 1.3793107397670439e-10 0.0000000000000000e+00  4.1705041480100493e-04 -1.6143215778897935e-09 0.0000000000000000e+00  4.1705041479821181e-04 -1.6143269888175757e-09 0.0000000000000000e+00  4.1705041479802359e-04 -1.6143211810717983e-09 0.0000000000000000e+00  4.1705041480155994e-04 -1.6143108735617445e-09 0.0000000000000000e+00  4.1705041479409889e-04 -1.6143160236304840e-09 0.0000000000000000e+00  4.1705041480361428e-04 -1.6143118416458643e-09 0.0000000000000000e+00  4.1705041480267037e-04 -1.6143163337123054e-09 0.0000000000000000e+00  4.1705041479701203e-04 -1.6143121906505437e-09 0.0000000000000000e+00  4.1705041480536299e-04 -1.6143232917965877e-09 0.0000000000000000e+00  4.1705041479706646e-04 -1.6143253745489611e-09 0.0000000000000000e+00  4.1705041479187964e-04 -1.6143292725810318e-09 0.0000000000000000e+00  4.1705041477623688e-04 -1.6143521578120684e-09 0.0000000000000000e+00  4.1705041478108890e-04 -1.6143154878177704e-09 0.0000000000000000e+00  4.1705041480908191e-04 -1.6143032523794135e-09 0.0000000000000000e+00  4.1705041480201508e-04 -1.6143157201622960e-09 0.0000000000000000e+00  4.1705041480480452e-04 -1.6143246833700761e-09 0.0000000000000000e+00  4.1705041479281975e-04 -1.6143193467101427e-09 0.0000000000000000e+00  4.1705041480095506e-04 -1.6143116666556337e-09 0.0000000000000000e+00  4.1705041480113449e-04 -1.6143136535645350e-09 0.0000000000000000e+00  4.1705041479768142e-04 -1.6143192326520742e-09 0.0000000000000000e+00  4.1705041480183359e-04 -1.6143152714110168e-09 0.0000000000000000e+00  4.1705041479698970e-04 -1.6143307210751343e-09 0.0000000000000000e+00  4.1705041482588217e-04 -1.6143012574474161e-09 0.0000000000000000e+00  4.1705041480829532e-04 -1.6143142986648276e-09 0.0000000000000000e+00  4.1705041479519025e-04 -1.6143273920323636e-09 0.0000000000000000e+00  4.1705041479304548e-04 -1.6143258749082637e-09 0.0000000000000000e+00  4.1705041479750675e-04 -1.6143021334827715e-09 0.0000000000000000e+00  4.1705041480708991e-04 -1.6143069824685677e-09 0.0000000000000000e+00  4.1705041479241209e-04 -1.6143129386416225e-09 0.0000000000000000e+00  4.1705041481321641e-04 -1.6143148346943817e-09 0.0000000000000000e+00  4.1705041480100515e-04 6.5390102202045625e-10 0.0000000000000000e+00  7.5928029215598363e-04 -2.3745262982440007e-09 0.0000000000000000e+00  7.5928029216269582e-04 -2.3745242147326859e-09 0.0000000000000000e+00  7.5928029215739288e-04 -2.3745315607445056e-09 0.0000000000000000e+00  7.5928029215372264e-04 -2.3745388624124564e-09 0.0000000000000000e+00  7.5928029216159047e-04 -2.3745314194729625e-09 0.0000000000000000e+00  7.5928029215124296e-04 -2.3745359106720418e-09 0.0000000000000000e+00  7.5928029216139553e-04 -2.3745247375349735e-09 0.0000000000000000e+00  7.5928029215702642e-04 -2.3745432263262006e-09 0.0000000000000000e+00  7.5928029215356792e-04 -2.3745331527869756e-09 0.0000000000000000e+00  7.5928029216054780e-04 -2.3745334165733642e-09 0.0000000000000000e+00  7.5928029215534666e-04 -2.3745218938895155e-09 0.0000000000000000e+00  7.5928029213438307e-04 -2.3745524145059316e-09 0.0000000000000000e+00  7.5928029215045474e-04 -2.3745322109405484e-09 0.0000000000000000e+00  7.5928029215686628e-04 -2.3745266978809215e-09 0.0000000000000000e+00  7.5928029216258653e-04 -2.3745240721601002e-09 0.0000000000000000e+00  7.5928029215251950e-04 -2.3745240890736541e-09 0.0000000000000000e+00  7.5928029215769537e-04 -2.3745331307776715e-09 0.0000000000000000e+00  7.5928029216015087e-04 -2.3745308360637735e-09 0.0000000000000000e+00  7.5928029215557055e-04 -2.3745336776492473e-09 0.0000000000000000e+00  7.5928029215716650e-04 -2.3745368829845501e-09 0.0000000000000000e+00  7.5928029214987914e-04 -2.3745345082565317e-09 0.0000000000000000e+00  7.5928029215498324e-04 -2.3745322440087147e-09 0.0000000000000000e+00  7.5928029217967171e-04 -2.3744986867588538e-09 0.0000000000000000e+00  7.5928029216379032e-04 -2.3745279372324249e-09 0.0000000000000000e+00  7.5928029215846320e-04 -2.3745283109569137e-09 0.0000000000000000e+00  7.5928029215170895e-04 -2.3745176113993544e-09 0.0000000000000000e+00  7.5928029215453275e-04 -2.3745334798907711e-09 0.0000000000000000e+00  7.5928029216880671e-04 -2.3745282969707057e-09 0.0000000000000000e+00  7.5928029215527901e-04 -2.3745321938101541e-09 0.0000000000000000e+00  7.5928029216019229e-04 -2.3745324543439361e-09 0.0000000000000000e+00  7.5928029215598406e-04 1.0999592266663911e-09 0.0000000000000000e+00  9.7022372348578440e-04 -2.6926082021590941e-09 0.0000000000000000e+00  9.7022372348229088e-04 -2.6926113801725021e-09 0.0000000000000000e+00  9.7022372347987614e-04 -2.6926087748346816e-09 0.0000000000000000e+00  9.7022372348024347e-04 -2.6926031116130539e-09 0.0000000000000000e+00  9.7022372348083458e-04 -2.6925988313997173e-09 0.0000000000000000e+00  9.7022372349155951e-04 -2.6926008699166420e-09 0.0000000000000000e+00  9.7022372348219916e-04 -2.6926093125989592e-09 0.0000000000000000e+00  9.7022372348349651e-04 -2.6925993466125897e-09 0.0000000000000000e+00  9.7022372348828240e-04 -2.6926066346195932e-09 0.0000000000000000e+00  9.7022372347922888e-04 -2.6925966274335411e-09 0.0000000000000000e+00  9.7022372348807640e-04 -2.6926050163394305e-09 0.0000000000000000e+00  9.7022372348706202e-04 -2.6926000231547453e-09 0.0000000000000000e+00  9.7022372347425109e-04 -2.6926155508814192e-09 0.0000000000000000e+00  9.7022372348074307e-04 -2.6926188123783945e-09 0.0000000000000000e+00  9.7022372348467200e-04 -2.6926119040589919e-09 0.0000000000000000e+00  9.7022372348179735e-04 -2.6926123396914248e-09 0.0000000000000000e+00  9.7022372347898905e-04 -2.6926028483687664e-09 0.0000000000000000e+00  9.7022372348806729e-04 -2.6926021364816199e-09 0.0000000000000000e+00  9.7022372348344642e-04 -2.6926108486965972e-09 0.0000000000000000e+00  9.7022372348067498e-04 -2.6926149890478535e-09 0.0000000000000000e+00  9.7022372348319944e-04 -2.6926109430221862e-09 0.0000000000000000e+00  9.7022372347781963e-04 -2.6926060350557918e-09 0.0000000000000000e+00  9.7022372349989811e-04 -2.6926224954131744e-09 0.0000000000000000e+00  9.7022372347377078e-04 -2.6926157410504803e-09 0.0000000000000000e+00  9.7022372348663311e-04 -2.6926168963763153e-09 0.0000000000000000e+00  9.7022372347406612e-04 -2.6926174308879863e-09 0.0000000000000000e+00  9.7022372347934076e-04 -2.6926105312422011e-09 0.0000000000000000e+00  9.7022372348599039e-04 -2.6926154222950416e-09 0.0000000000000000e+00  9.7022372347847904e-04 -2.6926057054583313e-09 0.0000000000000000e+00  9.7022372347810911e-04 -2.6926048704058181e-09 0.0000000000000000e+00  9.7022372348578461e-04 1.3668428658797339e-09 0.0000000000000000e+00  1.0134066965695311e-03 -2.4380351886649221e-09 0.0000000000000000e+00  1.0134066965788557e-03 -2.4380281266056514e-09 0.0000000000000000e+00  1.0134066965744840e-03 -2.4380294300335031e-09 0.0000000000000000e+00  1.0134066965842795e-03 -2.4380329355843874e-09 0.0000000000000000e+00  1.0134066965829633e-03 -2.4380290634647486e-09 0.0000000000000000e+00  1.0134066965777483e-03 -2.4380321828228191e-09 0.0000000000000000e+00  1.0134066965741414e-03 -2.4380308571688228e-09 0.0000000000000000e+00  1.0134066965840779e-03 -2.4380134086695801e-09 0.0000000000000000e+00  1.0134066965945432e-03 -2.4380196017408096e-09 0.0000000000000000e+00  1.0134066965768363e-03 -2.4380296280088198e-09 0.0000000000000000e+00  1.0134066965799904e-03 -2.4380238282861386e-09 0.0000000000000000e+00  1.0134066965859292e-03 -2.4380333801072782e-09 0.0000000000000000e+00  1.0134066965780566e-03 -2.4380295387789810e-09 0.0000000000000000e+00  1.0134066965881874e-03 -2.4380207427551759e-09 0.0000000000000000e+00  1.0134066965810380e-03 -2.4380281034037249e-09 0.0000000000000000e+00  1.0134066965819097e-03 -2.4380373286631701e-09 0.0000000000000000e+00  1.0134066965765843e-03 -2.4380254877659838e-09 0.0000000000000000e+00  1.0134066965922827e-03 -2.4380255188825861e-09 0.0000000000000000e+00  1.0134066965775969e-03 -2.4380271576541698e-09 0.0000000000000000e+00  1.0134066965795975e-03 -2.4380228343980070e-09 0.0000000000000000e+00  1.0134066965873300e-03 -2.4380365622406544e-09 0.0000000000000000e+00  1.0134066965762733e-03 -2.4380203986294063e-09 0.0000000000000000e+00  1.0134066965859323e-03 -2.4380277148256663e-09 0.0000000000000000e+00  1.0134066965740156e-03 -2.4380326112995176e-09 0.0000000000000000e+00  1.0134066965783255e-03 -2.4380287971846951e-09 0.0000000000000000e+00  1.0134066965777496e-03 -2.4380424320027960e-09 0.0000000000000000e+00  1.0134066965747823e-03 -2.4380284187981369e-09 0.0000000000000000e+00  1.0134066965812078e-03 -2.4380321514893763e-09 0.0000000000000000e+00  1.0134066965769065e-03 -2.4380379533804619e-09 0.0000000000000000e+00  1.0134066965843830e-03 -2.4380377406599957e-09 0.0000000000000000e+00  1.0134066965695313e-03 1.3745165274659287e-09 0.0000000000000000e+00  8.8136247616405730e-04 -1.6662992411656946e-09 0.0000000000000000e+00  8.8136247616419521e-04 -1.6662880549097800e-09 0.0000000000000000e+00  8.8136247617143335e-04 -1.6662843479141320e-09 0.0000000000000000e+00  8.8136247616478459e-04 -1.6662846265540904e-09 0.0000000000000000e+00  8.8136247616756155e-04 -1.6662908908574026e-09 0.0000000000000000e+00  8.8136247616217860e-04 -1.6662965577653177e-09 0.0000000000000000e+00  8.8136247616492759e-04 -1.6662922161861382e-09 0.0000000000000000e+00  8.8136247616382268e-04 -1.6662850746548483e-09 0.0000000000000000e+00  8.8136247617161105e-04 -1.6662834432558393e-09 0.0000000000000000e+00  8.8136247616519040e-04 -1.6662927186054249e-09 0.0000000000000000e+00  8.8136247617253067e-04 -1.6662853759546320e-09 0.0000000000000000e+00  8.8136247616376717e-04 -1.6663032747230369e-09 0.0000000000000000e+00  8.8136247616042739e-04 -1.6662946237654824e-09 0.0000000000000000e+00  8.8136247616186450e-04 -1.6662811466987976e-09 0.0000000000000000e+00  8.8136247617354169e-04 -1.6662881358996823e-09 0.0000000000000000e+00  8.8136247615628834e-04 -1.6662852910616019e-09 0.0000000000000000e+00  8.8136247617535512e-04 -1.6662929099671084e-09 0.0000000000000000e+00  8.8136247615401163e-04 -1.6662988091111289e-09 0.0000000000000000e+00  8.8136247616818107e-04 -1.6662890417505974e-09 0.0000000000000000e+00  8.8136247616475542e-04 -1.6662973722179897e-09 0.0000000000000000e+00  8.8136247616315189e-04 -1.6662886634724594e-09 0.0000000000000000e+00  8.8136247616717915e-04 -1.6662927267369412e-09 0.0000000000000000e+00  8.8136247616590674e-04 -1.6662983808512707e-09 0.0000000000000000e+00  8.8136247617056989e-04 -1.6662988044490595e-09 0.0000000000000000e+00  8.8136247615557234e-04 -1.6662881991086689e-09 0.0000000000000000e+00  8.8136247616666535e-04 -1.6662822685227854e-09 0.0000000000000000e+00  8.8136247615405489e-04 -1.6663022502604041e-09 0.0000000000000000e+00  8.8136247615825335e-04 -1.6662973157310565e-09 0.0000000000000000e+00  8.8136247615761031e-04 -1.6662887375234678e-09 0.0000000000000000e+00  8.8136247616586272e-04 -1.6662916267054170e-09 0.0000000000000000e+00  8.8136247616405774e-04 1.1083754614467396e-09 0.0000000000000000e+00  5.9692267477307222e-04 -6.0169996014738242e-10 0.0000000000000000e+00  5.9692267477802399e-04 -6.0169488337070975e-10 0.0000000000000000e+00  5.9692267477863071e-04 -6.0170948377926553e-10 0.0000000000000000e+00  5.9692267477498930e-04 -6.0169782622066653e-10 0.0000000000000000e+00  5.9692267478533086e-04 -6.0169815885389305e-10 0.0000000000000000e+00  5.9692267477071191e-04 -6.0169936893193776e-10 0.0000000000000000e+00  5.9692267477683028e-04 -6.0169981085274327e-10 0.0000000000000000e+00  5.9692267477344052e-04 -6.0171016335718724e-10 0.0000000000000000e+00  5.9692267476720972e-04 -6.0171614614740535e-10 0.0000000000000000e+00  5.9692267477371060e-04 -6.0169972384551892e-10 0.0000000000000000e+00  5.9692267478109553e-04 -6.0169333962944646e-10 0.0000000000000000e+00  5.9692267477234754e-04 -6.0170190114032171e-10 0.0000000000000000e+00  5.9692267477291284e-04 -6.0170404222277193e-10 0.0000000000000000e+00  5.9692267477520745e-04 -6.0170585809878052e-10 0.0000000000000000e+00  5.9692267477432664e-04 -6.0170655399394493e-10 0.0000000000000000e+00  5.9692267477918061e-04 -6.0170075974648463e-10 0.0000000000000000e+00  5.9692267477645883e-04 -6.0171624708662760e-10 0.0000000000000000e+00  5.9692267477002019e-04 -6.0170487749212562e-10 0.0000000000000000e+00  5.9692267476412907e-04 -6.0170977255651417e-10 0.0000000000000000e+00  5.9692267477455757e-04 -6.0170659470573651e-10 0.0000000000000000e+00  5.9692267477660899e-04 -6.0170546854493995e-10 0.0000000000000000e+00  5.9692267477600802e-04 -6.0170222390730846e-10 0.0000000000000000e+00  5.9692267477222546e-04 -6.0170467962522914e-10 0.0000000000000000e+00  5.9692267477679634e-04 -6.0169274196299888e-10 0.0000000000000000e+00  5.9692267477399444e-04 -6.0171099369342104e-10 0.0000000000000000e+00  5.9692267476746407e-04 -6.0169967267117638e-10 0.0000000000000000e+00  5.9692267478026937e-04 -6.0169705416029950e-10 0.0000000000000000e+00  5.9692267476675934e-04 -6.0169202622693471e-10 0.0000000000000000e+00  5.9692267477925987e-04 -6.0169280712354944e-10 0.0000000000000000e+00  5.9692267478054985e-04 -6.0168615348323712e-10 0.0000000000000000e+00  5.9692267477307243e-04 6.3047037910413965e-10 0.0000000000000000e+00  2.0926948115981725e-04 4.6152710812981650e-10 0.0000000000000000e+00  2.0926948116171750e-04 4.6152354611910407e-10 0.0000000000000000e+00  2.0926948116805510e-04 4.6153910245516280e-10 0.0000000000000000e+00  2.0926948116865705e-04 4.6152345149535947e-10 0.0000000000000000e+00  2.0926948116679897e-04 4.6152173665344083e-10 0.0000000000000000e+00  2.0926948116189098e-04 4.6152596284640413e-10 0.0000000000000000e+00  2.0926948116174000e-04 4.6152389070565954e-10 0.0000000000000000e+00  2.0926948116409977e-04 4.6152336749679616e-10 0.0000000000000000e+00  2.0926948115736730e-04 4.6153394581344761e-10 0.0000000000000000e+00  2.0926948117593741e-04 4.6152071643274905e-10 0.0000000000000000e+00  2.0926948115863588e-04 4.6151623721410375e-10 0.0000000000000000e+00  2.0926948116192876e-04 4.6152794982306806e-10 0.0000000000000000e+00  2.0926948116393489e-04 4.6152171786963819e-10 0.0000000000000000e+00  2.0926948116312783e-04 4.6152184974927995e-10 0.0000000000000000e+00  2.0926948115506701e-04 4.6151722840528236e-10 0.0000000000000000e+00  2.0926948116716649e-04 4.6152905305298867e-10 0.0000000000000000e+00  2.0926948116450195e-04 4.6152929271587890e-10 0.0000000000000000e+00  2.0926948117601710e-04 4.6151846034355338e-10 0.0000000000000000e+00  2.0926948115421499e-04 4.6151464744845824e-10 0.0000000000000000e+00  2.0926948115517516e-04 4.6152596288706171e-10 0.0000000000000000e+00  2.0926948117023635e-04 4.6152846986064009e-10 0.0000000000000000e+00  2.0926948116119416e-04 4.6153124345308522e-10 0.0000000000000000e+00  2.0926948116884039e-04 4.6153463089369535e-10 0.0000000000000000e+00  2.0926948116786032e-04 4.6151906742900733e-10 0.0000000000000000e+00  2.0926948116157114e-04 4.6153039075518161e-10 0.0000000000000000e+00  2.0926948117033805e-04 4.6152677979274109e-10 0.0000000000000000e+00  2.0926948116782872e-04 4.6152740880618399e-10 0.0000000000000000e+00  2.0926948115784983e-04 4.6152387951127211e-10 0.0000000000000000e+00  2.0926948116481697e-04 4.6153125098829031e-10 0.0000000000000000e+00  2.0926948116537026e-04 4.6151702460237899e-10 0.0000000000000000e+00  2.0926948115981728e-04 5.7994202330515944e-11 0.0000000000000000e+00  -2.1456836242682715e-04 1.2830039452182106e-09 0.0000000000000000e+00  -2.1456836243853317e-04 1.2830000990110037e-09 0.0000000000000000e+00  -2.1456836243006572e-04 1.2829953672816724e-09 0.0000000000000000e+00  -2.1456836243865412e-04 1.2829890647060235e-09 0.0000000000000000e+00  -2.1456836244685546e-04 1.2829848825045634e-09 0.0000000000000000e+00  -2.1456836243551009e-04 1.2830005622905920e-09 0.0000000000000000e+00  -2.1456836243229587e-04 1.2830111799908873e-09 0.0000000000000000e+00  -2.1456836242980518e-04 1.2830068209560529e-09 0.0000000000000000e+00  -2.1456836243068919e-04 1.2830053094698042e-09 0.0000000000000000e+00  -2.1456836243503142e-04 1.2830060911253605e-09 0.0000000000000000e+00  -2.1456836243260552e-04 1.2830097120895660e-09 0.0000000000000000e+00  -2.1456836243195890e-04 1.2829992476412477e-09 0.0000000000000000e+00  -2.1456836243485009e-04 1.2829917133577208e-09 0.0000000000000000e+00  -2.1456836244080854e-04 1.2830010889960074e-09 0.0000000000000000e+00  -2.1456836243117578e-04 1.2830065295225089e-09 0.0000000000000000e+00  -2.1456836243991223e-04 1.2830004914921901e-09 0.0000000000000000e+00  -2.1456836243182912e-04 1.2829977539359147e-09 0.0000000000000000e+00  -2.1456836243805721e-04 1.2829977324145016e-09 0.0000000000000000e+00  -2.1456836243498621e-04 1.2830112463982704e-09 0.0000000000000000e+00  -2.1456836243897049e-04 1.2830127532766598e-09 0.0000000000000000e+00  -2.1456836242801945e-04 1.2829987692370391e-09 0.0000000000000000e+00  -2.1456836243649119e-04 1.2830052468571287e-09 0.0000000000000000e+00  -2.1456836243267583e-04 1.2830154478443191e-09 0.0000000000000000e+00  -2.1456836243046162e-04 1.2830059577684932e-09 0.0000000000000000e+00  -2.1456836243686589e-04 1.2830135224638911e-09 0.0000000000000000e+00  -2.1456836242697645e-04 1.2830061770483826e-09 0.0000000000000000e+00  -2.1456836243067699e-04 1.2830017356683932e-09 0.0000000000000000e+00  -2.1456836242873058e-04 1.2830041381519872e-09 0.0000000000000000e+00  -2.1456836243978814e-04 1.2830042432111777e-09 0.0000000000000000e+00  -2.1456836243909956e-04 1.2830135121639705e-09 0.0000000000000000e+00  -2.1456836242682732e-04 -4.7966711593927644e-10 0.0000000000000000e+00  -6.0130542768253262e-04 1.7551287599931048e-09 0.0000000000000000e+00  -6.0130542768449026e-04 1.7551264665802493e-09 0.00