<?xml version="1.0"?>
<VTKFile type="UnstructuredGrid"  version="0.1"  >
<UnstructuredGrid>
<Piece  NumberOfPoints="961" NumberOfCells="1800">
<Points>
<DataArray  type="Float64"  NumberOfComponents="3"  format="ascii">0 0 0  0.03333333333333333 0 0  0.06666666666666667 0 0  0.1 0 0  0.1333333333333333 0 0  0.1666666666666667 0 0  0.2 0 0  0.2333333333333333 0 0  0.2666666666666667 0 0  0.3 0 0  0.3333333333333333 0 0  0.3666666666666666 0 0  0.4 0 0  0.4333333333333333 0 0  0.4666666666666667 0 0  0.5 0 0  0.5333333333333333 0 0  0.5666666666666667 0 0  0.6 0 0  0.6333333333333333 0 0  0.6666666666666666 0 0  0.7 0 0  0.7333333333333333 0 0  0.7666666666666667 0 0  0.8 0 0  0.8333333333333334 0 0  0.8666666666666667 0 0  0.9 0 0  0.9333333333333333 0 0  0.9666666666666667 0 0  1 0 0  0 0.03333333333333333 0  0.03333333333333333 0.03333333333333333 0  0.06666666666666667 0.03333333333333333 0  0.1 0.03333333333333333 0  0.1333333333333333 0.03333333333333333 0  0.1666666666666667 0.03333333333333333 0  0.2 0.03333333333333333 0  0.2333333333333333 0.03333333333333333 0  0.2666666666666667 0.03333333333333333 0  0.3 0.03333333333333333 0  0.3333333333333333 0.03333333333333333 0  0.3666666666666666 0.03333333333333333 0  0.4 0.03333333333333333 0  0.4333333333333333 0.03333333333333333 0  0.4666666666666667 0.03333333333333333 0  0.5 0.03333333333333333 0  0.5333333333333333 0.03333333333333333 0  0.5666666666666667 0.03333333333333333 0  0.6 0.03333333333333333 0  0.6333333333333333 0.03333333333333333 0  0.6666666666666666 0.03333333333333333 0  0.7 0.03333333333333333 0  0.7333333333333333 0.03333333333333333 0  0.7666666666666667 0.03333333333333333 0  0.8 0.03333333333333333 0  0.8333333333333334 0.03333333333333333 0  0.8666666666666667 0.03333333333333333 0  0.9 0.03333333333333333 0  0.9333333333333333 0.03333333333333333 0  0.9666666666666667 0.03333333333333333 0  1 0.03333333333333333 0  0 0.06666666666666667 0  0.03333333333333333 0.06666666666666667 0  0.06666666666666667 0.06666666666666667 0  0.1 0.06666666666666667 0  0.1333333333333333 0.06666666666666667 0  0.1666666666666667 0.06666666666666667 0  0.2 0.06666666666666667 0  0.2333333333333333 0.06666666666666667 0  0.2666666666666667 0.06666666666666667 0  0.3 0.06666666666666667 0  0.3333333333333333 0.06666666666666667 0  0.3666666666666666 0.06666666666666667 0  0.4 0.06666666666666667 0  0.4333333333333333 0.06666666666666667 0  0.4666666666666667 0.06666666666666667 0  0.5 0.06666666666666667 0  0.5333333333333333 0.06666666666666667 0  0.5666666666666667 0.06666666666666667 0  0.6 0.06666666666666667 0  0.6333333333333333 0.06666666666666667 0  0.6666666666666666 0.06666666666666667 0  0.7 0.06666666666666667 0  0.7333333333333333 0.06666666666666667 0  0.7666666666666667 0.06666666666666667 0  0.8 0.06666666666666667 0  0.8333333333333334 0.06666666666666667 0  0.8666666666666667 0.06666666666666667 0  0.9 0.06666666666666667 0  0.9333333333333333 0.06666666666666667 0  0.9666666666666667 0.06666666666666667 0  1 0.06666666666666667 0  0 0.1 0  0.03333333333333333 0.1 0  0.06666666666666667 0.1 0  0.1 0.1 0  0.1333333333333333 0.1 0  0.1666666666666667 0.1 0  0.2 0.1 0  0.2333333333333333 0.1 0  0.2666666666666667 0.1 0  0.3 0.1 0  0.3333333333333333 0.1 0  0.3666666666666666 0.1 0  0.4 0.1 0  0.4333333333333333 0.1 0  0.4666666666666667 0.1 0  0.5 0.1 0  0.5333333333333333 0.1 0  0.5666666666666667 0.1 0  0.6 0.1 0  0.6333333333333333 0.1 0  0.6666666666666666 0.1 0  0.7 0.1 0  0.7333333333333333 0.1 0  0.7666666666666667 0.1 0  0.8 0.1 0  0.8333333333333334 0.1 0  0.8666666666666667 0.1 0  0.9 0.1 0  0.9333333333333333 0.1 0  0.9666666666666667 0.1 0  1 0.1 0  0 0.1333333333333333 0  0.03333333333333333 0.1333333333333333 0  0.06666666666666667 0.1333333333333333 0  0.1 0.1333333333333333 0  0.1333333333333333 0.1333333333333333 0  0.1666666666666667 0.1333333333333333 0  0.2 0.1333333333333333 0  0.2333333333333333 0.1333333333333333 0  0.2666666666666667 0.1333333333333333 0  0.3 0.1333333333333333 0  0.3333333333333333 0.1333333333333333 0  0.3666666666666666 0.1333333333333333 0  0.4 0.1333333333333333 0  0.4333333333333333 0.1333333333333333 0  0.4666666666666667 0.1333333333333333 0  0.5 0.1333333333333333 0  0.5333333333333333 0.1333333333333333 0  0.5666666666666667 0.1333333333333333 0  0.6 0.1333333333333333 0  0.6333333333333333 0.1333333333333333 0  0.6666666666666666 0.1333333333333333 0  0.7 0.1333333333333333 0  0.7333333333333333 0.1333333333333333 0  0.7666666666666667 0.1333333333333333 0  0.8 0.1333333333333333 0  0.8333333333333334 0.1333333333333333 0  0.8666666666666667 0.1333333333333333 0  0.9 0.1333333333333333 0  0.9333333333333333 0.1333333333333333 0  0.9666666666666667 0.1333333333333333 0  1 0.1333333333333333 0  0 0.1666666666666667 0  0.03333333333333333 0.1666666666666667 0  0.06666666666666667 0.1666666666666667 0  0.1 0.1666666666666667 0  0.1333333333333333 0.1666666666666667 0  0.1666666666666667 0.1666666666666667 0  0.2 0.1666666666666667 0  0.2333333333333333 0.1666666666666667 0  0.2666666666666667 0.1666666666666667 0  0.3 0.1666666666666667 0  0.3333333333333333 0.1666666666666667 0  0.3666666666666666 0.1666666666666667 0  0.4 0.1666666666666667 0  0.4333333333333333 0.1666666666666667 0  0.4666666666666667 0.1666666666666667 0  0.5 0.1666666666666667 0  0.5333333333333333 0.1666666666666667 0  0.5666666666666667 0.1666666666666667 0  0.6 0.1666666666666667 0  0.6333333333333333 0.1666666666666667 0  0.6666666666666666 0.1666666666666667 0  0.7 0.1666666666666667 0  0.7333333333333333 0.1666666666666667 0  0.7666666666666667 0.1666666666666667 0  0.8 0.1666666666666667 0  0.8333333333333334 0.1666666666666667 0  0.8666666666666667 0.1666666666666667 0  0.9 0.1666666666666667 0  0.9333333333333333 0.1666666666666667 0  0.9666666666666667 0.1666666666666667 0  1 0.1666666666666667 0  0 0.2 0  0.03333333333333333 0.2 0  0.06666666666666667 0.2 0  0.1 0.2 0  0.1333333333333333 0.2 0  0.1666666666666667 0.2 0  0.2 0.2 0  0.2333333333333333 0.2 0  0.2666666666666667 0.2 0  0.3 0.2 0  0.3333333333333333 0.2 0  0.3666666666666666 0.2 0  0.4 0.2 0  0.4333333333333333 0.2 0  0.4666666666666667 0.2 0  0.5 0.2 0  0.5333333333333333 0.2 0  0.5666666666666667 0.2 0  0.6 0.2 0  0.6333333333333333 0.2 0  0.6666666666666666 0.2 0  0.7 0.2 0  0.7333333333333333 0.2 0  0.7666666666666667 0.2 0  0.8 0.2 0  0.8333333333333334 0.2 0  0.8666666666666667 0.2 0  0.9 0.2 0  0.9333333333333333 0.2 0  0.9666666666666667 0.2 0  1 0.2 0  0 0.2333333333333333 0  0.03333333333333333 0.2333333333333333 0  0.06666666666666667 0.2333333333333333 0  0.1 0.2333333333333333 0  0.1333333333333333 0.2333333333333333 0  0.1666666666666667 0.2333333333333333 0  0.2 0.2333333333333333 0  0.2333333333333333 0.2333333333333333 0  0.2666666666666667 0.2333333333333333 0  0.3 0.2333333333333333 0  0.3333333333333333 0.2333333333333333 0  0.3666666666666666 0.2333333333333333 0  0.4 0.2333333333333333 0  0.4333333333333333 0.2333333333333333 0  0.4666666666666667 0.2333333333333333 0  0.5 0.2333333333333333 0  0.5333333333333333 0.2333333333333333 0  0.5666666666666667 0.2333333333333333 0  0.6 0.2333333333333333 0  0.6333333333333333 0.2333333333333333 0  0.6666666666666666 0.2333333333333333 0  0.7 0.2333333333333333 0  0.7333333333333333 0.2333333333333333 0  0.7666666666666667 0.2333333333333333 0  0.8 0.2333333333333333 0  0.8333333333333334 0.2333333333333333 0  0.8666666666666667 0.2333333333333333 0  0.9 0.2333333333333333 0  0.9333333333333333 0.2333333333333333 0  0.9666666666666667 0.2333333333333333 0  1 0.2333333333333333 0  0 0.2666666666666667 0  0.03333333333333333 0.2666666666666667 0  0.06666666666666667 0.2666666666666667 0  0.1 0.2666666666666667 0  0.1333333333333333 0.2666666666666667 0  0.1666666666666667 0.2666666666666667 0  0.2 0.2666666666666667 0  0.2333333333333333 0.2666666666666667 0  0.2666666666666667 0.2666666666666667 0  0.3 0.2666666666666667 0  0.3333333333333333 0.2666666666666667 0  0.3666666666666666 0.2666666666666667 0  0.4 0.2666666666666667 0  0.4333333333333333 0.2666666666666667 0  0.4666666666666667 0.2666666666666667 0  0.5 0.2666666666666667 0  0.5333333333333333 0.2666666666666667 0  0.5666666666666667 0.2666666666666667 0  0.6 0.2666666666666667 0  0.6333333333333333 0.2666666666666667 0  0.6666666666666666 0.2666666666666667 0  0.7 0.2666666666666667 0  0.7333333333333333 0.2666666666666667 0  0.7666666666666667 0.2666666666666667 0  0.8 0.2666666666666667 0  0.8333333333333334 0.2666666666666667 0  0.8666666666666667 0.2666666666666667 0  0.9 0.2666666666666667 0  0.9333333333333333 0.2666666666666667 0  0.9666666666666667 0.2666666666666667 0  1 0.2666666666666667 0  0 0.3 0  0.03333333333333333 0.3 0  0.06666666666666667 0.3 0  0.1 0.3 0  0.1333333333333333 0.3 0  0.1666666666666667 0.3 0  0.2 0.3 0  0.2333333333333333 0.3 0  0.2666666666666667 0.3 0  0.3 0.3 0  0.3333333333333333 0.3 0  0.3666666666666666 0.3 0  0.4 0.3 0  0.4333333333333333 0.3 0  0.4666666666666667 0.3 0  0.5 0.3 0  0.5333333333333333 0.3 0  0.5666666666666667 0.3 0  0.6 0.3 0  0.6333333333333333 0.3 0  0.6666666666666666 0.3 0  0.7 0.3 0  0.7333333333333333 0.3 0  0.7666666666666667 0.3 0  0.8 0.3 0  0.8333333333333334 0.3 0  0.8666666666666667 0.3 0  0.9 0.3 0  0.9333333333333333 0.3 0  0.9666666666666667 0.3 0  1 0.3 0  0 0.3333333333333333 0  0.03333333333333333 0.3333333333333333 0  0.06666666666666667 0.3333333333333333 0  0.1 0.3333333333333333 0  0.1333333333333333 0.3333333333333333 0  0.1666666666666667 0.3333333333333333 0  0.2 0.3333333333333333 0  0.2333333333333333 0.3333333333333333 0  0.2666666666666667 0.3333333333333333 0  0.3 0.3333333333333333 0  0.3333333333333333 0.3333333333333333 0  0.3666666666666666 0.3333333333333333 0  0.4 0.3333333333333333 0  0.4333333333333333 0.3333333333333333 0  0.4666666666666667 0.3333333333333333 0  0.5 0.3333333333333333 0  0.5333333333333333 0.33333333333333
[...]
<PointData  Vectors="u_f"> 
<DataArray  type="Float64"  Name="u_f"  NumberOfComponents="3" format="ascii">2.7086046981467820e-06 -1.1837951047481872e-09 0.0000000000000000e+00  2.7086046977476872e-06 -1.1837970910065672e-09 0.0000000000000000e+00  2.7086047146982666e-06 -1.1837884884586397e-09 0.0000000000000000e+00  2.7086047039311632e-06 -1.1837826884649079e-09 0.0000000000000000e+00  2.7086047153886865e-06 -1.1837790117185006e-09 0.0000000000000000e+00  2.7086047060857440e-06 -1.1838058405723093e-09 0.0000000000000000e+00  2.7086046950600584e-06 -1.1838004377218332e-09 0.0000000000000000e+00  2.7086047112182487e-06 -1.1837901401864394e-09 0.0000000000000000e+00  2.7086046988337867e-06 -1.1838331911984135e-09 0.0000000000000000e+00  2.7086047012158873e-06 -1.1837984758580021e-09 0.0000000000000000e+00  2.7086047016711438e-06 -1.1837987329765473e-09 0.0000000000000000e+00  2.7086046858345279e-06 -1.1838708167542962e-09 0.0000000000000000e+00  2.7086046535888916e-06 -1.1838274555520806e-09 0.0000000000000000e+00  2.7086046970818244e-06 -1.1838036408345215e-09 0.0000000000000000e+00  2.7086047042309451e-06 -1.1837866314371587e-09 0.0000000000000000e+00  2.7086047110168581e-06 -1.1838035495446986e-09 0.0000000000000000e+00  2.7086046860333164e-06 -1.1838102753928756e-09 0.0000000000000000e+00  2.7086047028608931e-06 -1.1837929974928448e-09 0.0000000000000000e+00  2.7086047155093040e-06 -1.1837892245234946e-09 0.0000000000000000e+00  2.7086047071406727e-06 -1.1837992375642384e-09 0.0000000000000000e+00  2.7086047008715447e-06 -1.1838063938406779e-09 0.0000000000000000e+00  2.7086047061083496e-06 -1.1837844849336976e-09 0.0000000000000000e+00  2.7086047346043811e-06 -1.1837342329761545e-09 0.0000000000000000e+00  2.7086047467201778e-06 -1.1837860204350244e-09 0.0000000000000000e+00  2.7086047048505667e-06 -1.1837986995289103e-09 0.0000000000000000e+00  2.7086047059374251e-06 -1.1837943030891009e-09 0.0000000000000000e+00  2.7086047127333128e-06 -1.1838102279590305e-09 0.0000000000000000e+00  2.7086047122534449e-06 -1.1838022510499667e-09 0.0000000000000000e+00  2.7086047000692893e-06 -1.1838096399419823e-09 0.0000000000000000e+00  2.7086047185495695e-06 -1.1838122636028195e-09 0.0000000000000000e+00  2.7086046981468362e-06 2.4077163754833345e-10 0.0000000000000000e+00  4.1704973498142149e-04 -2.3081836657929886e-09 0.0000000000000000e+00  4.1704973498221892e-04 -2.3081816822451140e-09 0.0000000000000000e+00  4.1704973497890181e-04 -2.3081814978223245e-09 0.0000000000000000e+00  4.1704973498406651e-04 -2.3081833329429216e-09 0.0000000000000000e+00  4.1704973499331617e-04 -2.3081826042506415e-09 0.0000000000000000e+00  4.1704973497339102e-04 -2.3081876469833659e-09 0.0000000000000000e+00  4.1704973498941412e-04 -2.3081902703189425e-09 0.0000000000000000e+00  4.1704973497208738e-04 -2.3081915221387708e-09 0.0000000000000000e+00  4.1704973498027668e-04 -2.3081677653176078e-09 0.0000000000000000e+00  4.1704973498559209e-04 -2.3081738342476885e-09 0.0000000000000000e+00  4.1704973497953845e-04 -2.3081771263191650e-09 0.0000000000000000e+00  4.1704973493512346e-04 -2.3082468587334523e-09 0.0000000000000000e+00  4.1704973495864783e-04 -2.3082027013473713e-09 0.0000000000000000e+00  4.1704973496818620e-04 -2.3081768077805667e-09 0.0000000000000000e+00  4.1704973498555935e-04 -2.3081781362534887e-09 0.0000000000000000e+00  4.1704973498063165e-04 -2.3081904281787788e-09 0.0000000000000000e+00  4.1704973497784157e-04 -2.3081725611774975e-09 0.0000000000000000e+00  4.1704973500096771e-04 -2.3081752949932755e-09 0.0000000000000000e+00  4.1704973497467472e-04 -2.3081743491353002e-09 0.0000000000000000e+00  4.1704973500188223e-04 -2.3081712837704979e-09 0.0000000000000000e+00  4.1704973498729917e-04 -2.3082057336440073e-09 0.0000000000000000e+00  4.1704973496523728e-04 -2.3081953097990604e-09 0.0000000000000000e+00  4.1704973503396421e-04 -2.3081047119139636e-09 0.0000000000000000e+00  4.1704973501916214e-04 -2.3081516452912870e-09 0.0000000000000000e+00  4.1704973498384338e-04 -2.3081751468912587e-09 0.0000000000000000e+00  4.1704973498880036e-04 -2.3081893744426873e-09 0.0000000000000000e+00  4.1704973498868348e-04 -2.3081870517563732e-09 0.0000000000000000e+00  4.1704973496553880e-04 -2.3081655058402803e-09 0.0000000000000000e+00  4.1704973498637315e-04 -2.3081838939091257e-09 0.0000000000000000e+00  4.1704973498156569e-04 -2.3081913004194266e-09 0.0000000000000000e+00  4.1704973498142171e-04 2.0079338210623222e-09 0.0000000000000000e+00  7.5927912487489316e-04 -3.2161961189972402e-09 0.0000000000000000e+00  7.5927912487836933e-04 -3.2161900875805546e-09 0.0000000000000000e+00  7.5927912486833666e-04 -3.2161806938360918e-09 0.0000000000000000e+00  7.5927912488640240e-04 -3.2161698558259150e-09 0.0000000000000000e+00  7.5927912486575214e-04 -3.2161830531684393e-09 0.0000000000000000e+00  7.5927912487578654e-04 -3.2161748484684990e-09 0.0000000000000000e+00  7.5927912488270538e-04 -3.2161831120406173e-09 0.0000000000000000e+00  7.5927912487683681e-04 -3.2161958942421298e-09 0.0000000000000000e+00  7.5927912486873164e-04 -3.2162053957562886e-09 0.0000000000000000e+00  7.5927912485624130e-04 -3.2162187838099751e-09 0.0000000000000000e+00  7.5927912487336281e-04 -3.2161875513064125e-09 0.0000000000000000e+00  7.5927912483275185e-04 -3.2162636430001224e-09 0.0000000000000000e+00  7.5927912482181973e-04 -3.2162140268729433e-09 0.0000000000000000e+00  7.5927912486664357e-04 -3.2162118603117421e-09 0.0000000000000000e+00  7.5927912485994678e-04 -3.2162062798147401e-09 0.0000000000000000e+00  7.5927912486503072e-04 -3.2161803038485703e-09 0.0000000000000000e+00  7.5927912488402680e-04 -3.2161746606846828e-09 0.0000000000000000e+00  7.5927912486922484e-04 -3.2161920283024434e-09 0.0000000000000000e+00  7.5927912487843601e-04 -3.2161751265663563e-09 0.0000000000000000e+00  7.5927912487031316e-04 -3.2161887148721841e-09 0.0000000000000000e+00  7.5927912488331340e-04 -3.2161770947185600e-09 0.0000000000000000e+00  7.5927912487188385e-04 -3.2161912906112852e-09 0.0000000000000000e+00  7.5927912492909546e-04 -3.2161089806928556e-09 0.0000000000000000e+00  7.5927912490309619e-04 -3.2161987159867039e-09 0.0000000000000000e+00  7.5927912487534712e-04 -3.2161854366784953e-09 0.0000000000000000e+00  7.5927912487372407e-04 -3.2161958544519101e-09 0.0000000000000000e+00  7.5927912486676772e-04 -3.2161919959932186e-09 0.0000000000000000e+00  7.5927912487411026e-04 -3.2161786575959916e-09 0.0000000000000000e+00  7.5927912486919741e-04 -3.2161807960763567e-09 0.0000000000000000e+00  7.5927912487407480e-04 -3.2161855080189983e-09 0.0000000000000000e+00  7.5927912487489359e-04 3.5264234303991681e-09 0.0000000000000000e+00  9.7022229645942057e-04 -3.4811258064516848e-09 0.0000000000000000e+00  9.7022229645766394e-04 -3.4811358329365355e-09 0.0000000000000000e+00  9.7022229645913911e-04 -3.4811314933089199e-09 0.0000000000000000e+00  9.7022229646106573e-04 -3.4811518958254017e-09 0.0000000000000000e+00  9.7022229644770901e-04 -3.4811466571773447e-09 0.0000000000000000e+00  9.7022229645321026e-04 -3.4811366421850370e-09 0.0000000000000000e+00  9.7022229646802436e-04 -3.4811311012614143e-09 0.0000000000000000e+00  9.7022229645898992e-04 -3.4811360059752022e-09 0.0000000000000000e+00  9.7022229645399023e-04 -3.4811221696039174e-09 0.0000000000000000e+00  9.7022229646091199e-04 -3.4811239641753533e-09 0.0000000000000000e+00  9.7022229645969335e-04 -3.4811537456911484e-09 0.0000000000000000e+00  9.7022229641519097e-04 -3.4811158625830396e-09 0.0000000000000000e+00  9.7022229647981094e-04 -3.4811280991055987e-09 0.0000000000000000e+00  9.7022229644440870e-04 -3.4811397980807207e-09 0.0000000000000000e+00  9.7022229645716000e-04 -3.4811316639623419e-09 0.0000000000000000e+00  9.7022229646249406e-04 -3.4811467129053364e-09 0.0000000000000000e+00  9.7022229644791957e-04 -3.4811542485441160e-09 0.0000000000000000e+00  9.7022229646027513e-04 -3.4811398750590750e-09 0.0000000000000000e+00  9.7022229645189187e-04 -3.4811320948242852e-09 0.0000000000000000e+00  9.7022229646568162e-04 -3.4811267954609065e-09 0.0000000000000000e+00  9.7022229645681544e-04 -3.4811445082886389e-09 0.0000000000000000e+00  9.7022229645254195e-04 -3.4811471444178010e-09 0.0000000000000000e+00  9.7022229648761134e-04 -3.4811528922071983e-09 0.0000000000000000e+00  9.7022229644202346e-04 -3.4811321091357539e-09 0.0000000000000000e+00  9.7022229647095583e-04 -3.4811419105402336e-09 0.0000000000000000e+00  9.7022229644172595e-04 -3.4811515363039613e-09 0.0000000000000000e+00  9.7022229645880127e-04 -3.4811466563099830e-09 0.0000000000000000e+00  9.7022229644818129e-04 -3.4811585224690800e-09 0.0000000000000000e+00  9.7022229646195196e-04 -3.4811415757386027e-09 0.0000000000000000e+00  9.7022229645373327e-04 -3.4811287437722105e-09 0.0000000000000000e+00  9.7022229645942122e-04 4.4547087656471964e-09 0.0000000000000000e+00  1.0134053121228456e-03 -2.8845447572417929e-09 0.0000000000000000e+00  1.0134053121361171e-03 -2.8845578806417291e-09 0.0000000000000000e+00  1.0134053121393536e-03 -2.8845376830394578e-09 0.0000000000000000e+00  1.0134053121365399e-03 -2.8845550110838392e-09 0.0000000000000000e+00  1.0134053121311120e-03 -2.8845612624851455e-09 0.0000000000000000e+00  1.0134053121256658e-03 -2.8845710482771139e-09 0.0000000000000000e+00  1.0134053121409140e-03 -2.8845514183631002e-09 0.0000000000000000e+00  1.0134053121338515e-03 -2.8845460012553656e-09 0.0000000000000000e+00  1.0134053121567705e-03 -2.8845490078564101e-09 0.0000000000000000e+00  1.0134053121287092e-03 -2.8845592505311740e-09 0.0000000000000000e+00  1.0134053121319509e-03 -2.8845551396702168e-09 0.0000000000000000e+00  1.0134053121409138e-03 -2.8845596316282376e-09 0.0000000000000000e+00  1.0134053121347083e-03 -2.8845503654943705e-09 0.0000000000000000e+00  1.0134053121278166e-03 -2.8845630437208947e-09 0.0000000000000000e+00  1.0134053121228317e-03 -2.8845662774622943e-09 0.0000000000000000e+00  1.0134053121558413e-03 -2.8845407018919869e-09 0.0000000000000000e+00  1.0134053121289071e-03 -2.8845779800152835e-09 0.0000000000000000e+00  1.0134053121273454e-03 -2.8845545046530044e-09 0.0000000000000000e+00  1.0134053121382456e-03 -2.8845702753493851e-09 0.0000000000000000e+00  1.0134053121291339e-03 -2.8845654559623082e-09 0.0000000000000000e+00  1.0134053121533754e-03 -2.8845611178525757e-09 0.0000000000000000e+00  1.0134053121224292e-03 -2.8845717723073247e-09 0.0000000000000000e+00  1.0134053121327907e-03 -2.8845562315702247e-09 0.0000000000000000e+00  1.0134053121442811e-03 -2.8845377732450786e-09 0.0000000000000000e+00  1.0134053121318583e-03 -2.8845370608158311e-09 0.0000000000000000e+00  1.0134053121362931e-03 -2.8845370029194350e-09 0.0000000000000000e+00  1.0134053121298864e-03 -2.8845586392579892e-09 0.0000000000000000e+00  1.0134053121370549e-03 -2.8845513761876357e-09 0.0000000000000000e+00  1.0134053121349852e-03 -2.8845528289101266e-09 0.0000000000000000e+00  1.0134053121416188e-03 -2.8845540742247419e-09 0.0000000000000000e+00  1.0134053121228458e-03 4.5542089634862818e-09 0.0000000000000000e+00  8.8136141457301545e-04 -1.5680297368696194e-09 0.0000000000000000e+00  8.8136141459149242e-04 -1.5679991835102977e-09 0.0000000000000000e+00  8.8136141460801675e-04 -1.5680229289473380e-09 0.0000000000000000e+00  8.8136141459361356e-04 -1.5679977858652772e-09 0.0000000000000000e+00  8.8136141459327388e-04 -1.5679895490729526e-09 0.0000000000000000e+00  8.8136141460462190e-04 -1.5679830249947999e-09 0.0000000000000000e+00  8.8136141460198522e-04 -1.5679997600890130e-09 0.0000000000000000e+00  8.8136141461049827e-04 -1.5680185306643848e-09 0.0000000000000000e+00  8.8136141458257334e-04 -1.5680165296608553e-09 0.0000000000000000e+00  8.8136141460381362e-04 -1.5679985333142549e-09 0.0000000000000000e+00  8.8136141459792022e-04 -1.5679954128719822e-09 0.0000000000000000e+00  8.8136141459462121e-04 -1.5680090971297023e-09 0.0000000000000000e+00  8.8136141460079477e-04 -1.5680021926050072e-09 0.0000000000000000e+00  8.8136141459623841e-04 -1.5679903436847248e-09 0.0000000000000000e+00  8.8136141461382666e-04 -1.5680168663056299e-09 0.0000000000000000e+00  8.8136141458375361e-04 -1.5680129458305742e-09 0.0000000000000000e+00  8.8136141461115367e-04 -1.5679910664138930e-09 0.0000000000000000e+00  8.8136141458860704e-04 -1.5680120639405271e-09 0.0000000000000000e+00  8.8136141460053467e-04 -1.5679984562274804e-09 0.0000000000000000e+00  8.8136141458712591e-04 -1.5680082748707747e-09 0.0000000000000000e+00  8.8136141460479287e-04 -1.5680097325805956e-09 0.0000000000000000e+00  8.8136141460157626e-04 -1.5680137580064216e-09 0.0000000000000000e+00  8.8136141458530022e-04 -1.5679987287959066e-09 0.0000000000000000e+00  8.8136141461637172e-04 -1.5680009426283226e-09 0.0000000000000000e+00  8.8136141459290492e-04 -1.5680181691913805e-09 0.0000000000000000e+00  8.8136141459956409e-04 -1.5680087164663195e-09 0.0000000000000000e+00  8.8136141460107590e-04 -1.5680045487931685e-09 0.0000000000000000e+00  8.8136141459795806e-04 -1.5679861727589672e-09 0.0000000000000000e+00  8.8136141461355312e-04 -1.5680087796753062e-09 0.0000000000000000e+00  8.8136141460967027e-04 -1.5680147200190092e-09 0.0000000000000000e+00  8.8136141457301567e-04 3.7821261409469847e-09 0.0000000000000000e+00  5.9692211101705531e-04 1.7087008999557007e-11 0.0000000000000000e+00  5.9692211101864030e-04 1.7064166269245562e-11 0.0000000000000000e+00  5.9692211103368523e-04 1.7093871619838080e-11 0.0000000000000000e+00  5.9692211101123552e-04 1.7049076234988692e-11 0.0000000000000000e+00  5.9692211100679030e-04 1.7051449878804914e-11 0.0000000000000000e+00  5.9692211102429539e-04 1.7067947749582757e-11 0.0000000000000000e+00  5.9692211101503554e-04 1.7078925188158955e-11 0.0000000000000000e+00  5.9692211101905761e-04 1.7089183529644253e-11 0.0000000000000000e+00  5.9692211103692136e-04 1.7065337370222172e-11 0.0000000000000000e+00  5.9692211101256497e-04 1.7064148217279390e-11 0.0000000000000000e+00  5.9692211101993430e-04 1.7070699346276308e-11 0.0000000000000000e+00  5.9692211102224180e-04 1.7065748120215218e-11 0.0000000000000000e+00  5.9692211100540317e-04 1.7062557367431702e-11 0.0000000000000000e+00  5.9692211101768436e-04 1.7080985714387764e-11 0.0000000000000000e+00  5.9692211101568954e-04 1.7041430874949193e-11 0.0000000000000000e+00  5.9692211101139317e-04 1.7073483848505794e-11 0.0000000000000000e+00  5.9692211102207603e-04 1.7069201087294150e-11 0.0000000000000000e+00  5.9692211102067589e-04 1.7058956298336009e-11 0.0000000000000000e+00  5.9692211102132858e-04 1.7079550935442805e-11 0.0000000000000000e+00  5.9692211102123989e-04 1.7093206787065912e-11 0.0000000000000000e+00  5.9692211102812479e-04 1.7074708129598964e-11 0.0000000000000000e+00  5.9692211102372185e-04 1.7084806876524472e-11 0.0000000000000000e+00  5.9692211102320533e-04 1.7071036262101408e-11 0.0000000000000000e+00  5.9692211101686145e-04 1.7054590378817736e-11 0.0000000000000000e+00  5.9692211101431336e-04 1.7054869886137802e-11 0.0000000000000000e+00  5.9692211101262450e-04 1.7050244029148676e-11 0.0000000000000000e+00  5.9692211101179844e-04 1.7063979569631460e-11 0.0000000000000000e+00  5.9692211102507114e-04 1.7044359955538380e-11 0.0000000000000000e+00  5.9692211102033155e-04 1.7051972410041943e-11 0.0000000000000000e+00  5.9692211100769560e-04 1.7068920712612345e-11 0.0000000000000000e+00  5.9692211101705552e-04 2.3148904256260866e-09 0.0000000000000000e+00  2.0926945225075317e-04 1.3353617395471572e-09 0.0000000000000000e+00  2.0926945225317522e-04 1.3353512029045268e-09 0.0000000000000000e+00  2.0926945225612740e-04 1.3353363804107085e-09 0.0000000000000000e+00  2.0926945223661127e-04 1.3353551512977884e-09 0.0000000000000000e+00  2.0926945223704191e-04 1.3353589475910378e-09 0.0000000000000000e+00  2.0926945224710846e-04 1.3353459752611218e-09 0.0000000000000000e+00  2.0926945225069034e-04 1.3353665975589365e-09 0.0000000000000000e+00  2.0926945226519393e-04 1.3353743385185026e-09 0.0000000000000000e+00  2.0926945225034676e-04 1.3353623052838508e-09 0.0000000000000000e+00  2.0926945226053750e-04 1.3353565302132164e-09 0.0000000000000000e+00  2.0926945224066282e-04 1.3353704719282948e-09 0.0000000000000000e+00  2.0926945225409934e-04 1.3353817219895073e-09 0.0000000000000000e+00  2.0926945223938249e-04 1.3353704450400810e-09 0.0000000000000000e+00  2.0926945225279591e-04 1.3353673919538683e-09 0.0000000000000000e+00  2.0926945225202461e-04 1.3353594723177842e-09 0.0000000000000000e+00  2.0926945223809337e-04 1.3353488698911870e-09 0.0000000000000000e+00  2.0926945226574270e-04 1.3353699337032314e-09 0.0000000000000000e+00  2.0926945227684531e-04 1.3353693143120828e-09 0.0000000000000000e+00  2.0926945225505566e-04 1.3353513706577079e-09 0.0000000000000000e+00  2.0926945224999320e-04 1.3353448734542165e-09 0.0000000000000000e+00  2.0926945225277537e-04 1.3353522181243360e-09 0.0000000000000000e+00  2.0926945224129440e-04 1.3353575772001493e-09 0.0000000000000000e+00  2.0926945226005619e-04 1.3353881702412706e-09 0.0000000000000000e+00  2.0926945226034280e-04 1.3353845897178061e-09 0.0000000000000000e+00  2.0926945225908098e-04 1.3353789959664325e-09 0.0000000000000000e+00  2.0926945224839362e-04 1.3353662357877766e-09 0.0000000000000000e+00  2.0926945224201114e-04 1.3353736226604657e-09 0.0000000000000000e+00  2.0926945225393883e-04 1.3353517803234988e-09 0.0000000000000000e+00  2.0926945223951162e-04 1.3353454118825679e-09 0.0000000000000000e+00  2.0926945225801697e-04 1.3353528185283941e-09 0.0000000000000000e+00  2.0926945225075317e-04 4.8871038956152535e-10 0.0000000000000000e+00  -2.1456793156544548e-04 2.0331091278840557e-09 0.0000000000000000e+00  -2.1456793155582844e-04 2.0331223348217693e-09 0.0000000000000000e+00  -2.1456793155078560e-04 2.0331353928985246e-09 0.0000000000000000e+00  -2.1456793155326647e-04 2.0331390702954533e-09 0.0000000000000000e+00  -2.1456793157160521e-04 2.0331270104978483e-09 0.0000000000000000e+00  -2.1456793156133098e-04 2.0331232206691544e-09 0.0000000000000000e+00  -2.1456793155846349e-04 2.0331572172377355e-09 0.0000000000000000e+00  -2.1456793154925525e-04 2.0331245199228277e-09 0.0000000000000000e+00  -2.1456793155301960e-04 2.0331363744267514e-09 0.0000000000000000e+00  -2.1456793155048078e-04 2.0331345054790464e-09 0.0000000000000000e+00  -2.1456793155553614e-04 2.0331327268995926e-09 0.0000000000000000e+00  -2.1456793154325755e-04 2.0331243120270612e-09 0.0000000000000000e+00  -2.1456793156463536e-04 2.0331350123435621e-09 0.0000000000000000e+00  -2.1456793154853133e-04 2.0331157998473848e-09 0.0000000000000000e+00  -2.1456793155746461e-04 2.0331320732341028e-09 0.0000000000000000e+00  -2.1456793155750234e-04 2.0331532589782340e-09 0.0000000000000000e+00  -2.1456793156277238e-04 2.0331413491799996e-09 0.0000000000000000e+00  -2.1456793153968700e-04 2.0331459683691454e-09 0.0000000000000000e+00  -2.1456793154850607e-04 2.0331462300955498e-09 0.0000000000000000e+00  -2.1456793156648409e-04 2.0331310304484533e-09 0.0000000000000000e+00  -2.1456793154573381e-04 2.0331463343415887e-09 0.0000000000000000e+00  -2.1456793156906633e-04 2.0331204299327624e-09 0.0000000000000000e+00  -2.1456793155388230e-04 2.0331334913163343e-09 0.0000000000000000e+00  -2.1456793155753178e-04 2.0331255834709488e-09 0.0000000000000000e+00  -2.1456793154717174e-04 2.0331359695314501e-09 0.0000000000000000e+00  -2.1456793155535280e-04 2.0331580882315507e-09 0.0000000000000000e+00  -2.1456793155765332e-04 2.0331298689426659e-09 0.0000000000000000e+00  -2.1456793156189130e-04 2.0331332221631450e-09 0.0000000000000000e+00  -2.1456793155425299e-04 2.0331384140278783e-09 0.0000000000000000e+00  -2.1456793154796798e-04 2.0331312624677182e-09 0.0000000000000000e+00  -2.1456793156544564e-04 -1.3126814765821003e-09 0.0000000000000000e+00  -6.0130466576136053e-04 2.0822587434680961e-09 0.0000000000000000e+00  -6.0130466576364375e-04 2.0822663483873946e-09 0.0000000000000000e+00  -6.0130466