<?xml version="1.0"?>
<VTKFile type="UnstructuredGrid"  version="0.1"  >
<UnstructuredGrid>
<Piece  NumberOfPoints="961" NumberOfCells="1800">
<Points>
<DataArray  type="Float64"  NumberOfComponents="3"  format="ascii">0 0 0  0.03333333333333333 0 0  0.06666666666666667 0 0  0.1 0 0  0.1333333333333333 0 0  0.1666666666666667 0 0  0.2 0 0  0.2333333333333333 0 0  0.2666666666666667 0 0  0.3 0 0  0.3333333333333333 0 0  0.3666666666666666 0 0  0.4 0 0  0.4333333333333333 0 0  0.4666666666666667 0 0  0.5 0 0  0.5333333333333333 0 0  0.5666666666666667 0 0  0.6 0 0  0.6333333333333333 0 0  0.6666666666666666 0 0  0.7 0 0  0.7333333333333333 0 0  0.7666666666666667 0 0  0.8 0 0  0.8333333333333334 0 0  0.8666666666666667 0 0  0.9 0 0  0.9333333333333333 0 0  0.9666666666666667 0 0  1 0 0  0 0.03333333333333333 0  0.03333333333333333 0.03333333333333333 0  0.06666666666666667 0.03333333333333333 0  0.1 0.03333333333333333 0  0.1333333333333333 0.03333333333333333 0  0.1666666666666667 0.03333333333333333 0  0.2 0.03333333333333333 0  0.2333333333333333 0.03333333333333333 0  0.2666666666666667 0.03333333333333333 0  0.3 0.03333333333333333 0  0.3333333333333333 0.03333333333333333 0  0.3666666666666666 0.03333333333333333 0  0.4 0.03333333333333333 0  0.4333333333333333 0.03333333333333333 0  0.4666666666666667 0.03333333333333333 0  0.5 0.03333333333333333 0  0.5333333333333333 0.03333333333333333 0  0.5666666666666667 0.03333333333333333 0  0.6 0.03333333333333333 0  0.6333333333333333 0.03333333333333333 0  0.6666666666666666 0.03333333333333333 0  0.7 0.03333333333333333 0  0.7333333333333333 0.03333333333333333 0  0.7666666666666667 0.03333333333333333 0  0.8 0.03333333333333333 0  0.8333333333333334 0.03333333333333333 0  0.8666666666666667 0.03333333333333333 0  0.9 0.03333333333333333 0  0.9333333333333333 0.03333333333333333 0  0.9666666666666667 0.03333333333333333 0  1 0.03333333333333333 0  0 0.06666666666666667 0  0.03333333333333333 0.06666666666666667 0  0.06666666666666667 0.06666666666666667 0  0.1 0.06666666666666667 0  0.1333333333333333 0.06666666666666667 0  0.1666666666666667 0.06666666666666667 0  0.2 0.06666666666666667 0  0.2333333333333333 0.06666666666666667 0  0.2666666666666667 0.06666666666666667 0  0.3 0.06666666666666667 0  0.3333333333333333 0.06666666666666667 0  0.3666666666666666 0.06666666666666667 0  0.4 0.06666666666666667 0  0.4333333333333333 0.06666666666666667 0  0.4666666666666667 0.06666666666666667 0  0.5 0.06666666666666667 0  0.5333333333333333 0.06666666666666667 0  0.5666666666666667 0.06666666666666667 0  0.6 0.06666666666666667 0  0.6333333333333333 0.06666666666666667 0  0.6666666666666666 0.06666666666666667 0  0.7 0.06666666666666667 0  0.7333333333333333 0.06666666666666667 0  0.7666666666666667 0.06666666666666667 0  0.8 0.06666666666666667 0  0.8333333333333334 0.06666666666666667 0  0.8666666666666667 0.06666666666666667 0  0.9 0.06666666666666667 0  0.9333333333333333 0.06666666666666667 0  0.9666666666666667 0.06666666666666667 0  1 0.06666666666666667 0  0 0.1 0  0.03333333333333333 0.1 0  0.06666666666666667 0.1 0  0.1 0.1 0  0.1333333333333333 0.1 0  0.1666666666666667 0.1 0  0.2 0.1 0  0.2333333333333333 0.1 0  0.2666666666666667 0.1 0  0.3 0.1 0  0.3333333333333333 0.1 0  0.3666666666666666 0.1 0  0.4 0.1 0  0.4333333333333333 0.1 0  0.4666666666666667 0.1 0  0.5 0.1 0  0.5333333333333333 0.1 0  0.5666666666666667 0.1 0  0.6 0.1 0  0.6333333333333333 0.1 0  0.6666666666666666 0.1 0  0.7 0.1 0  0.7333333333333333 0.1 0  0.7666666666666667 0.1 0  0.8 0.1 0  0.8333333333333334 0.1 0  0.8666666666666667 0.1 0  0.9 0.1 0  0.9333333333333333 0.1 0  0.9666666666666667 0.1 0  1 0.1 0  0 0.1333333333333333 0  0.03333333333333333 0.1333333333333333 0  0.06666666666666667 0.1333333333333333 0  0.1 0.1333333333333333 0  0.1333333333333333 0.1333333333333333 0  0.1666666666666667 0.1333333333333333 0  0.2 0.1333333333333333 0  0.2333333333333333 0.1333333333333333 0  0.2666666666666667 0.1333333333333333 0  0.3 0.1333333333333333 0  0.3333333333333333 0.1333333333333333 0  0.3666666666666666 0.1333333333333333 0  0.4 0.1333333333333333 0  0.4333333333333333 0.1333333333333333 0  0.4666666666666667 0.1333333333333333 0  0.5 0.1333333333333333 0  0.5333333333333333 0.1333333333333333 0  0.5666666666666667 0.1333333333333333 0  0.6 0.1333333333333333 0  0.6333333333333333 0.1333333333333333 0  0.6666666666666666 0.1333333333333333 0  0.7 0.1333333333333333 0  0.7333333333333333 0.1333333333333333 0  0.7666666666666667 0.1333333333333333 0  0.8 0.1333333333333333 0  0.8333333333333334 0.1333333333333333 0  0.8666666666666667 0.1333333333333333 0  0.9 0.1333333333333333 0  0.9333333333333333 0.1333333333333333 0  0.9666666666666667 0.1333333333333333 0  1 0.1333333333333333 0  0 0.1666666666666667 0  0.03333333333333333 0.1666666666666667 0  0.06666666666666667 0.1666666666666667 0  0.1 0.1666666666666667 0  0.1333333333333333 0.1666666666666667 0  0.1666666666666667 0.1666666666666667 0  0.2 0.1666666666666667 0  0.2333333333333333 0.1666666666666667 0  0.2666666666666667 0.1666666666666667 0  0.3 0.1666666666666667 0  0.3333333333333333 0.1666666666666667 0  0.3666666666666666 0.1666666666666667 0  0.4 0.1666666666666667 0  0.4333333333333333 0.1666666666666667 0  0.4666666666666667 0.1666666666666667 0  0.5 0.1666666666666667 0  0.5333333333333333 0.1666666666666667 0  0.5666666666666667 0.1666666666666667 0  0.6 0.1666666666666667 0  0.6333333333333333 0.1666666666666667 0  0.6666666666666666 0.1666666666666667 0  0.7 0.1666666666666667 0  0.7333333333333333 0.1666666666666667 0  0.7666666666666667 0.1666666666666667 0  0.8 0.1666666666666667 0  0.8333333333333334 0.1666666666666667 0  0.8666666666666667 0.1666666666666667 0  0.9 0.1666666666666667 0  0.9333333333333333 0.1666666666666667 0  0.9666666666666667 0.1666666666666667 0  1 0.1666666666666667 0  0 0.2 0  0.03333333333333333 0.2 0  0.06666666666666667 0.2 0  0.1 0.2 0  0.1333333333333333 0.2 0  0.1666666666666667 0.2 0  0.2 0.2 0  0.2333333333333333 0.2 0  0.2666666666666667 0.2 0  0.3 0.2 0  0.3333333333333333 0.2 0  0.3666666666666666 0.2 0  0.4 0.2 0  0.4333333333333333 0.2 0  0.4666666666666667 0.2 0  0.5 0.2 0  0.5333333333333333 0.2 0  0.5666666666666667 0.2 0  0.6 0.2 0  0.6333333333333333 0.2 0  0.6666666666666666 0.2 0  0.7 0.2 0  0.7333333333333333 0.2 0  0.7666666666666667 0.2 0  0.8 0.2 0  0.8333333333333334 0.2 0  0.8666666666666667 0.2 0  0.9 0.2 0  0.9333333333333333 0.2 0  0.9666666666666667 0.2 0  1 0.2 0  0 0.2333333333333333 0  0.03333333333333333 0.2333333333333333 0  0.06666666666666667 0.2333333333333333 0  0.1 0.2333333333333333 0  0.1333333333333333 0.2333333333333333 0  0.1666666666666667 0.2333333333333333 0  0.2 0.2333333333333333 0  0.2333333333333333 0.2333333333333333 0  0.2666666666666667 0.2333333333333333 0  0.3 0.2333333333333333 0  0.3333333333333333 0.2333333333333333 0  0.3666666666666666 0.2333333333333333 0  0.4 0.2333333333333333 0  0.4333333333333333 0.2333333333333333 0  0.4666666666666667 0.2333333333333333 0  0.5 0.2333333333333333 0  0.5333333333333333 0.2333333333333333 0  0.5666666666666667 0.2333333333333333 0  0.6 0.2333333333333333 0  0.6333333333333333 0.2333333333333333 0  0.6666666666666666 0.2333333333333333 0  0.7 0.2333333333333333 0  0.7333333333333333 0.2333333333333333 0  0.7666666666666667 0.2333333333333333 0  0.8 0.2333333333333333 0  0.8333333333333334 0.2333333333333333 0  0.8666666666666667 0.2333333333333333 0  0.9 0.2333333333333333 0  0.9333333333333333 0.2333333333333333 0  0.9666666666666667 0.2333333333333333 0  1 0.2333333333333333 0  0 0.2666666666666667 0  0.03333333333333333 0.2666666666666667 0  0.06666666666666667 0.2666666666666667 0  0.1 0.2666666666666667 0  0.1333333333333333 0.2666666666666667 0  0.1666666666666667 0.2666666666666667 0  0.2 0.2666666666666667 0  0.2333333333333333 0.2666666666666667 0  0.2666666666666667 0.2666666666666667 0  0.3 0.2666666666666667 0  0.3333333333333333 0.2666666666666667 0  0.3666666666666666 0.2666666666666667 0  0.4 0.2666666666666667 0  0.4333333333333333 0.2666666666666667 0  0.4666666666666667 0.2666666666666667 0  0.5 0.2666666666666667 0  0.5333333333333333 0.2666666666666667 0  0.5666666666666667 0.2666666666666667 0  0.6 0.2666666666666667 0  0.6333333333333333 0.2666666666666667 0  0.6666666666666666 0.2666666666666667 0  0.7 0.2666666666666667 0  0.7333333333333333 0.2666666666666667 0  0.7666666666666667 0.2666666666666667 0  0.8 0.2666666666666667 0  0.8333333333333334 0.2666666666666667 0  0.8666666666666667 0.2666666666666667 0  0.9 0.2666666666666667 0  0.9333333333333333 0.2666666666666667 0  0.9666666666666667 0.2666666666666667 0  1 0.2666666666666667 0  0 0.3 0  0.03333333333333333 0.3 0  0.06666666666666667 0.3 0  0.1 0.3 0  0.1333333333333333 0.3 0  0.1666666666666667 0.3 0  0.2 0.3 0  0.2333333333333333 0.3 0  0.2666666666666667 0.3 0  0.3 0.3 0  0.3333333333333333 0.3 0  0.3666666666666666 0.3 0  0.4 0.3 0  0.4333333333333333 0.3 0  0.4666666666666667 0.3 0  0.5 0.3 0  0.5333333333333333 0.3 0  0.5666666666666667 0.3 0  0.6 0.3 0  0.6333333333333333 0.3 0  0.6666666666666666 0.3 0  0.7 0.3 0  0.7333333333333333 0.3 0  0.7666666666666667 0.3 0  0.8 0.3 0  0.8333333333333334 0.3 0  0.8666666666666667 0.3 0  0.9 0.3 0  0.9333333333333333 0.3 0  0.9666666666666667 0.3 0  1 0.3 0  0 0.3333333333333333 0  0.03333333333333333 0.3333333333333333 0  0.06666666666666667 0.3333333333333333 0  0.1 0.3333333333333333 0  0.1333333333333333 0.3333333333333333 0  0.1666666666666667 0.3333333333333333 0  0.2 0.3333333333333333 0  0.2333333333333333 0.3333333333333333 0  0.2666666666666667 0.3333333333333333 0  0.3 0.3333333333333333 0  0.3333333333333333 0.3333333333333333 0  0.3666666666666666 0.3333333333333333 0  0.4 0.3333333333333333 0  0.4333333333333333 0.3333333333333333 0  0.4666666666666667 0.3333333333333333 0  0.5 0.3333333333333333 0  0.5333333333333333 0.33333333333333
[...]
<PointData  Vectors="u_f"> 
<DataArray  type="Float64"  Name="u_f"  NumberOfComponents="3" format="ascii">2.7094285192240017e-06 2.3797637431618654e-09 0.0000000000000000e+00  2.7094285082281317e-06 2.3797649151844139e-09 0.0000000000000000e+00  2.7094285113479777e-06 2.3797744199511792e-09 0.0000000000000000e+00  2.7094285151373727e-06 2.3797676703589746e-09 0.0000000000000000e+00  2.7094285096826974e-06 2.3797644596568711e-09 0.0000000000000000e+00  2.7094285002706299e-06 2.3797473976757029e-09 0.0000000000000000e+00  2.7094285018338868e-06 2.3797568275783082e-09 0.0000000000000000e+00  2.7094285179040940e-06 2.3797575983376326e-09 0.0000000000000000e+00  2.7094285152211815e-06 2.3797652924867699e-09 0.0000000000000000e+00  2.7094285064020642e-06 2.3797443504170769e-09 0.0000000000000000e+00  2.7094284949062686e-06 2.3797684426361820e-09 0.0000000000000000e+00  2.7094284990295979e-06 2.3796939950808567e-09 0.0000000000000000e+00  2.7094284716439520e-06 2.3797508654421415e-09 0.0000000000000000e+00  2.7094285115610776e-06 2.3797696174776561e-09 0.0000000000000000e+00  2.7094285083203973e-06 2.3797528361422203e-09 0.0000000000000000e+00  2.7094284981310653e-06 2.3797441979240413e-09 0.0000000000000000e+00  2.7094285220943186e-06 2.3797476736051558e-09 0.0000000000000000e+00  2.7094285008823367e-06 2.3797761489825937e-09 0.0000000000000000e+00  2.7094285283702771e-06 2.3797896332050129e-09 0.0000000000000000e+00  2.7094285131534996e-06 2.3797608024803130e-09 0.0000000000000000e+00  2.7094285126495082e-06 2.3797668490758289e-09 0.0000000000000000e+00  2.7094285115871527e-06 2.3797271964413544e-09 0.0000000000000000e+00  2.7094285256419365e-06 2.3798484664059108e-09 0.0000000000000000e+00  2.7094285630636082e-06 2.3798006001810382e-09 0.0000000000000000e+00  2.7094285250348917e-06 2.3797586580368360e-09 0.0000000000000000e+00  2.7094285076640755e-06 2.3797573331959913e-09 0.0000000000000000e+00  2.7094285121218270e-06 2.3797681114124183e-09 0.0000000000000000e+00  2.7094285179715856e-06 2.3797470891117646e-09 0.0000000000000000e+00  2.7094285054780529e-06 2.3797618347492014e-09 0.0000000000000000e+00  2.7094285158355989e-06 2.3797586480621760e-09 0.0000000000000000e+00  2.7094285192240559e-06 -5.8300453893548464e-10 0.0000000000000000e+00  4.1705258762695372e-04 4.9427832871573249e-09 0.0000000000000000e+00  4.1705258761427549e-04 4.9427956222338615e-09 0.0000000000000000e+00  4.1705258761688137e-04 4.9427980653750370e-09 0.0000000000000000e+00  4.1705258762870091e-04 4.9427999150239432e-09 0.0000000000000000e+00  4.1705258762372876e-04 4.9427860156605122e-09 0.0000000000000000e+00  4.1705258761519435e-04 4.9428082112305469e-09 0.0000000000000000e+00  4.1705258761381612e-04 4.9427796028215024e-09 0.0000000000000000e+00  4.1705258760605626e-04 4.9427800636074257e-09 0.0000000000000000e+00  4.1705258762453064e-04 4.9427855908701010e-09 0.0000000000000000e+00  4.1705258761159404e-04 4.9427778193089286e-09 0.0000000000000000e+00  4.1705258762701400e-04 4.9427921000946839e-09 0.0000000000000000e+00  4.1705258756458878e-04 4.9427245217732729e-09 0.0000000000000000e+00  4.1705258757791840e-04 4.9427661789891442e-09 0.0000000000000000e+00  4.1705258761711263e-04 4.9427798006883988e-09 0.0000000000000000e+00  4.1705258760953308e-04 4.9427961913315818e-09 0.0000000000000000e+00  4.1705258762978034e-04 4.9428119810015006e-09 0.0000000000000000e+00  4.1705258762132769e-04 4.9428033852298367e-09 0.0000000000000000e+00  4.1705258761161931e-04 4.9427885494409893e-09 0.0000000000000000e+00  4.1705258762748986e-04 4.9427941368768852e-09 0.0000000000000000e+00  4.1705258761798401e-04 4.9427906139787661e-09 0.0000000000000000e+00  4.1705258761585561e-04 4.9427899898035754e-09 0.0000000000000000e+00  4.1705258762638441e-04 4.9427978724954705e-09 0.0000000000000000e+00  4.1705258765061416e-04 4.9428416753474411e-09 0.0000000000000000e+00  4.1705258765732417e-04 4.9428023697660819e-09 0.0000000000000000e+00  4.1705258762198027e-04 4.9428061196961359e-09 0.0000000000000000e+00  4.1705258761594722e-04 4.9427979634600328e-09 0.0000000000000000e+00  4.1705258762205020e-04 4.9427941784018284e-09 0.0000000000000000e+00  4.1705258762633876e-04 4.9427825324441926e-09 0.0000000000000000e+00  4.1705258761044327e-04 4.9427751253917906e-09 0.0000000000000000e+00  4.1705258760906666e-04 4.9427890566307656e-09 0.0000000000000000e+00  4.1705258762695394e-04 -1.0977279817395668e-09 0.0000000000000000e+00  7.5928352165774936e-04 6.4918132334623041e-09 0.0000000000000000e+00  7.5928352164446290e-04 6.4918136407970603e-09 0.0000000000000000e+00  7.5928352165492599e-04 6.4918167175459854e-09 0.0000000000000000e+00  7.5928352164572892e-04 6.4918223190765095e-09 0.0000000000000000e+00  7.5928352165893450e-04 6.4918269170695028e-09 0.0000000000000000e+00  7.5928352164163703e-04 6.4918167668771842e-09 0.0000000000000000e+00  7.5928352165645656e-04 6.4918254992583219e-09 0.0000000000000000e+00  7.5928352165776302e-04 6.4918173990754710e-09 0.0000000000000000e+00  7.5928352164534490e-04 6.4918366749974754e-09 0.0000000000000000e+00  7.5928352166041021e-04 6.4918242037451460e-09 0.0000000000000000e+00  7.5928352164438375e-04 6.4918339603720759e-09 0.0000000000000000e+00  7.5928352160974176e-04 6.4917431367560868e-09 0.0000000000000000e+00  7.5928352161657310e-04 6.4918118013396545e-09 0.0000000000000000e+00  7.5928352164507536e-04 6.4918237226846420e-09 0.0000000000000000e+00  7.5928352164973255e-04 6.4918164365207823e-09 0.0000000000000000e+00  7.5928352165432111e-04 6.4918093058315141e-09 0.0000000000000000e+00  7.5928352164146985e-04 6.4918211970356812e-09 0.0000000000000000e+00  7.5928352165828008e-04 6.4918253625404279e-09 0.0000000000000000e+00  7.5928352164040310e-04 6.4918211349108967e-09 0.0000000000000000e+00  7.5928352166128896e-04 6.4918407958330926e-09 0.0000000000000000e+00  7.5928352165257197e-04 6.4918237700642770e-09 0.0000000000000000e+00  7.5928352164745931e-04 6.4918061874492256e-09 0.0000000000000000e+00  7.5928352169570858e-04 6.4918806374440058e-09 0.0000000000000000e+00  7.5928352168662383e-04 6.4918407379366966e-09 0.0000000000000000e+00  7.5928352164963411e-04 6.4918230776927696e-09 0.0000000000000000e+00  7.5928352165483481e-04 6.4918245202237601e-09 0.0000000000000000e+00  7.5928352164715573e-04 6.4918369010536284e-09 0.0000000000000000e+00  7.5928352165432914e-04 6.4918265597164668e-09 0.0000000000000000e+00  7.5928352164860162e-04 6.4918366704438263e-09 0.0000000000000000e+00  7.5928352166051104e-04 6.4918235427070814e-09 0.0000000000000000e+00  7.5928352165774958e-04 -1.3356937607531099e-09 0.0000000000000000e+00  9.7022748099441546e-04 7.0110793913124442e-09 0.0000000000000000e+00  9.7022748099490075e-04 7.0110667549361239e-09 0.0000000000000000e+00  9.7022748099746532e-04 7.0110894054373901e-09 0.0000000000000000e+00  9.7022748099950839e-04 7.0110708304520902e-09 0.0000000000000000e+00  9.7022748099367733e-04 7.0110874540903201e-09 0.0000000000000000e+00  9.7022748099588239e-04 7.0110781561893293e-09 0.0000000000000000e+00  9.7022748099795169e-04 7.0110898091942792e-09 0.0000000000000000e+00  9.7022748101288983e-04 7.0111068953531558e-09 0.0000000000000000e+00  9.7022748101011297e-04 7.0110817173597850e-09 0.0000000000000000e+00  9.7022748098692839e-04 7.0110665235673802e-09 0.0000000000000000e+00  9.7022748098673020e-04 7.0110617767134287e-09 0.0000000000000000e+00  9.7022748098397633e-04 7.0111081369814837e-09 0.0000000000000000e+00  9.7022748100676084e-04 7.0110638555626742e-09 0.0000000000000000e+00  9.7022748099116589e-04 7.0110960951816348e-09 0.0000000000000000e+00  9.7022748101103454e-04 7.0110854671814188e-09 0.0000000000000000e+00  9.7022748099741740e-04 7.0110699435747131e-09 0.0000000000000000e+00  9.7022748099282320e-04 7.0110931366107465e-09 0.0000000000000000e+00  9.7022748099783026e-04 7.0110792113348835e-09 0.0000000000000000e+00  9.7022748099679875e-04 7.0110615084818112e-09 0.0000000000000000e+00  9.7022748099434065e-04 7.0110772400384935e-09 0.0000000000000000e+00  9.7022748101126353e-04 7.0110575420365834e-09 0.0000000000000000e+00  9.7022748098096485e-04 7.0110774711903967e-09 0.0000000000000000e+00  9.7022748102117509e-04 7.0110687383755782e-09 0.0000000000000000e+00  9.7022748101166577e-04 7.0110940308606984e-09 0.0000000000000000e+00  9.7022748099041193e-04 7.0110771955862045e-09 0.0000000000000000e+00  9.7022748099544285e-04 7.0110836689236955e-09 0.0000000000000000e+00  9.7022748099150915e-04 7.0110771840936614e-09 0.0000000000000000e+00  9.7022748101156190e-04 7.0110983527073983e-09 0.0000000000000000e+00  9.7022748099750305e-04 7.0110785395632175e-09 0.0000000000000000e+00  9.7022748099628918e-04 7.0110866780184050e-09 0.0000000000000000e+00  9.7022748099441589e-04 -1.3308525416742065e-09 0.0000000000000000e+00  1.0134103852466616e-03 6.5640426937223911e-09 0.0000000000000000e+00  1.0134103852393120e-03 6.5640681025424044e-09 0.0000000000000000e+00  1.0134103852395431e-03 6.5640638818517671e-09 0.0000000000000000e+00  1.0134103852583066e-03 6.5640478887855208e-09 0.0000000000000000e+00  1.0134103852318106e-03 6.5640415464196522e-09 0.0000000000000000e+00  1.0134103852392920e-03 6.5640735980379561e-09 0.0000000000000000e+00  1.0134103852533212e-03 6.5640566843756451e-09 0.0000000000000000e+00  1.0134103852455277e-03 6.5640494591439474e-09 0.0000000000000000e+00  1.0134103852502459e-03 6.5640582292553207e-09 0.0000000000000000e+00  1.0134103852535697e-03 6.5640509485124718e-09 0.0000000000000000e+00  1.0134103852317005e-03 6.5640931782955103e-09 0.0000000000000000e+00  1.0134103852544834e-03 6.5640730354454488e-09 0.0000000000000000e+00  1.0134103852385418e-03 6.5640712241772994e-09 0.0000000000000000e+00  1.0134103852535519e-03 6.5640530130502486e-09 0.0000000000000000e+00  1.0134103852561748e-03 6.5640591294683845e-09 0.0000000000000000e+00  1.0134103852531113e-03 6.5640638411941857e-09 0.0000000000000000e+00  1.0134103852500924e-03 6.5640561003159348e-09 0.0000000000000000e+00  1.0134103852443037e-03 6.5640434690353647e-09 0.0000000000000000e+00  1.0134103852357584e-03 6.5640494015728121e-09 0.0000000000000000e+00  1.0134103852404894e-03 6.5640561127842598e-09 0.0000000000000000e+00  1.0134103852405911e-03 6.5640436092227056e-09 0.0000000000000000e+00  1.0134103852461290e-03 6.5640380796832057e-09 0.0000000000000000e+00  1.0134103852436501e-03 6.5640678261792706e-09 0.0000000000000000e+00  1.0134103852419470e-03 6.5640560538036616e-09 0.0000000000000000e+00  1.0134103852441276e-03 6.5640662390157103e-09 0.0000000000000000e+00  1.0134103852527121e-03 6.5640630459318922e-09 0.0000000000000000e+00  1.0134103852481942e-03 6.5640429532803912e-09 0.0000000000000000e+00  1.0134103852357450e-03 6.5640540757852181e-09 0.0000000000000000e+00  1.0134103852605617e-03 6.5640541227311722e-09 0.0000000000000000e+00  1.0134103852216987e-03 6.5640400612795163e-09 0.0000000000000000e+00  1.0134103852466620e-03 -1.1538931690166984e-09 0.0000000000000000e+00  8.8136549221297790e-04 5.1812230954196778e-09 0.0000000000000000e+00  8.8136549221092778e-04 5.1812205541582057e-09 0.0000000000000000e+00  8.8136549220466521e-04 5.1812270809468638e-09 0.0000000000000000e+00  8.8136549220738407e-04 5.1812066543610938e-09 0.0000000000000000e+00  8.8136549218912881e-04 5.1812141454391641e-09 0.0000000000000000e+00  8.8136549221151845e-04 5.1812178290160452e-09 0.0000000000000000e+00  8.8136549220646965e-04 5.1812193100362128e-09 0.0000000000000000e+00  8.8136549220104311e-04 5.1812257047690463e-09 0.0000000000000000e+00  8.8136549220431111e-04 5.1812079028198954e-09 0.0000000000000000e+00  8.8136549220377096e-04 5.1812141826272987e-09 0.0000000000000000e+00  8.8136549221187971e-04 5.1812164745222711e-09 0.0000000000000000e+00  8.8136549221352618e-04 5.1812257538834047e-09 0.0000000000000000e+00  8.8136549220077477e-04 5.1812256926259820e-09 0.0000000000000000e+00  8.8136549221033917e-04 5.1812049252754691e-09 0.0000000000000000e+00  8.8136549219096025e-04 5.1812066546863544e-09 0.0000000000000000e+00  8.8136549221054408e-04 5.1812047605851591e-09 0.0000000000000000e+00  8.8136549220302069e-04 5.1812118900818049e-09 0.0000000000000000e+00  8.8136549221138531e-04 5.1811959427688903e-09 0.0000000000000000e+00  8.8136549218571357e-04 5.1812228328259116e-09 0.0000000000000000e+00  8.8136549221519401e-04 5.1812158596712191e-09 0.0000000000000000e+00  8.8136549220272926e-04 5.1812182514212116e-09 0.0000000000000000e+00  8.8136549221586697e-04 5.1812095937416036e-09 0.0000000000000000e+00  8.8136549220049331e-04 5.1811995016625215e-09 0.0000000000000000e+00  8.8136549220285806e-04 5.1812201351140660e-09 0.0000000000000000e+00  8.8136549220691677e-04 5.1812040226771605e-09 0.0000000000000000e+00  8.8136549219476872e-04 5.1812042257482274e-09 0.0000000000000000e+00  8.8136549220364107e-04 5.1812146003703957e-09 0.0000000000000000e+00  8.8136549221369271e-04 5.1811993911823201e-09 0.0000000000000000e+00  8.8136549220416290e-04 5.1812158555512508e-09 0.0000000000000000e+00  8.8136549219537067e-04 5.1812187307469920e-09 0.0000000000000000e+00  8.8136549221297833e-04 -8.5383909088485423e-10 0.0000000000000000e+00  5.9692448226027358e-04 2.8859654685009332e-09 0.0000000000000000e+00  5.9692448224880489e-04 2.8859516914897174e-09 0.0000000000000000e+00  5.9692448223938686e-04 2.8859441316732293e-09 0.0000000000000000e+00  5.9692448226111579e-04 2.8859700889369115e-09 0.0000000000000000e+00  5.9692448224977872e-04 2.8859681362345888e-09 0.0000000000000000e+00  5.9692448223782702e-04 2.8859585759024621e-09 0.0000000000000000e+00  5.9692448226445513e-04 2.8859643702583426e-09 0.0000000000000000e+00  5.9692448224415886e-04 2.8859713692712570e-09 0.0000000000000000e+00  5.9692448225333880e-04 2.8859557595788989e-09 0.0000000000000000e+00  5.9692448223889940e-04 2.8859484600793524e-09 0.0000000000000000e+00  5.9692448224918490e-04 2.8859552318434914e-09 0.0000000000000000e+00  5.9692448224480396e-04 2.8859475820382230e-09 0.0000000000000000e+00  5.9692448224758494e-04 2.8859582683143058e-09 0.0000000000000000e+00  5.9692448225027279e-04 2.8859622422947387e-09 0.0000000000000000e+00  5.9692448225180813e-04 2.8859830216256856e-09 0.0000000000000000e+00  5.9692448226703033e-04 2.8859798250724204e-09 0.0000000000000000e+00  5.9692448225314603e-04 2.8859620903980143e-09 0.0000000000000000e+00  5.9692448225883419e-04 2.8859576619200307e-09 0.0000000000000000e+00  5.9692448224039386e-04 2.8859631047775669e-09 0.0000000000000000e+00  5.9692448225394726e-04 2.8859719047587100e-09 0.0000000000000000e+00  5.9692448225452167e-04 2.8859704561019772e-09 0.0000000000000000e+00  5.9692448225610482e-04 2.8859764418195412e-09 0.0000000000000000e+00  5.9692448226273168e-04 2.8859636753931703e-09 0.0000000000000000e+00  5.9692448225381520e-04 2.8859685512129703e-09 0.0000000000000000e+00  5.9692448225380566e-04 2.8859750937767700e-09 0.0000000000000000e+00  5.9692448224204272e-04 2.8859638170441841e-09 0.0000000000000000e+00  5.9692448224939675e-04 2.8859607589977465e-09 0.0000000000000000e+00  5.9692448223561318e-04 2.8859751719477467e-09 0.0000000000000000e+00  5.9692448225549344e-04 2.8859720599622510e-09 0.0000000000000000e+00  5.9692448225138073e-04 2.8859589002957521e-09 0.0000000000000000e+00  5.9692448226027369e-04 -4.3824449724857779e-10 0.0000000000000000e+00  2.0926970691933350e-04 -1.6670155415841968e-10 0.0000000000000000e+00  2.0926970692148093e-04 -1.6671083171706721e-10 0.0000000000000000e+00  2.0926970690019552e-04 -1.6669894739758384e-10 0.0000000000000000e+00  2.0926970691252054e-04 -1.6670731949833956e-10 0.0000000000000000e+00  2.0926970690435869e-04 -1.6671320175591121e-10 0.0000000000000000e+00  2.0926970690781640e-04 -1.6670079136798122e-10 0.0000000000000000e+00  2.0926970690258377e-04 -1.6671882745059128e-10 0.0000000000000000e+00  2.0926970691807328e-04 -1.6671645841463429e-10 0.0000000000000000e+00  2.0926970691145303e-04 -1.6670950211928551e-10 0.0000000000000000e+00  2.0926970690508790e-04 -1.6669888878290389e-10 0.0000000000000000e+00  2.0926970691241797e-04 -1.6670250287597818e-10 0.0000000000000000e+00  2.0926970690140389e-04 -1.6669960159162219e-10 0.0000000000000000e+00  2.0926970691701195e-04 -1.6669603649093357e-10 0.0000000000000000e+00  2.0926970689735691e-04 -1.6669024971091573e-10 0.0000000000000000e+00  2.0926970692297417e-04 -1.6672098627329955e-10 0.0000000000000000e+00  2.0926970690791089e-04 -1.6669296682998019e-10 0.0000000000000000e+00  2.0926970691758279e-04 -1.6669927825542930e-10 0.0000000000000000e+00  2.0926970691087754e-04 -1.6671886371715395e-10 0.0000000000000000e+00  2.0926970691572004e-04 -1.6672661664360149e-10 0.0000000000000000e+00  2.0926970691708698e-04 -1.6668718780200788e-10 0.0000000000000000e+00  2.0926970690992620e-04 -1.6670252210701422e-10 0.0000000000000000e+00  2.0926970691217159e-04 -1.6670006416647908e-10 0.0000000000000000e+00  2.0926970691118401e-04 -1.6669492910038712e-10 0.0000000000000000e+00  2.0926970691752505e-04 -1.6672056710718714e-10 0.0000000000000000e+00  2.0926970691180420e-04 -1.6672112602695958e-10 0.0000000000000000e+00  2.0926970689910695e-04 -1.6671302368925691e-10 0.0000000000000000e+00  2.0926970691724001e-04 -1.6670359741872889e-10 0.0000000000000000e+00  2.0926970690753814e-04 -1.6672494708067608e-10 0.0000000000000000e+00  2.0926970691406471e-04 -1.6670787244144752e-10 0.0000000000000000e+00  2.0926970690479196e-04 -1.6670306086062625e-10 0.0000000000000000e+00  2.0926970691933350e-04 9.8361637912048508e-11 0.0000000000000000e+00  -2.1456983127766130e-04 -3.5571147444127087e-09 0.0000000000000000e+00  -2.1456983128704919e-04 -3.5571164205892673e-09 0.0000000000000000e+00  -2.1456983127655439e-04 -3.5571303928652945e-09 0.0000000000000000e+00  -2.1456983129144569e-04 -3.5571447104055035e-09 0.0000000000000000e+00  -2.1456983127400190e-04 -3.5571425396701238e-09 0.0000000000000000e+00  -2.1456983129569175e-04 -3.5571118996830485e-09 0.0000000000000000e+00  -2.1456983128127424e-04 -3.5571267395918642e-09 0.0000000000000000e+00  -2.1456983128433587e-04 -3.5570983147924576e-09 0.0000000000000000e+00  -2.1456983126853254e-04 -3.5571135328709910e-09 0.0000000000000000e+00  -2.1456983128097847e-04 -3.5571104383411503e-09 0.0000000000000000e+00  -2.1456983127291304e-04 -3.5571002954129863e-09 0.0000000000000000e+00  -2.1456983128042900e-04 -3.5571110337849834e-09 0.0000000000000000e+00  -2.1456983127369258e-04 -3.5571096547340302e-09 0.0000000000000000e+00  -2.1456983127767437e-04 -3.5571111463793791e-09 0.0000000000000000e+00  -2.1456983129067606e-04 -3.5571266320932188e-09 0.0000000000000000e+00  -2.1456983128044607e-04 -3.5571365046755711e-09 0.0000000000000000e+00  -2.1456983127178249e-04 -3.5571134316607182e-09 0.0000000000000000e+00  -2.1456983128487163e-04 -3.5571175787340280e-09 0.0000000000000000e+00  -2.1456983128172337e-04 -3.5571203181876572e-09 0.0000000000000000e+00  -2.1456983127359706e-04 -3.5571147549294697e-09 0.0000000000000000e+00  -2.1456983127634920e-04 -3.5571247421119917e-09 0.0000000000000000e+00  -2.1456983128739315e-04 -3.5571267243046135e-09 0.0000000000000000e+00  -2.1456983129211442e-04 -3.5571100086718294e-09 0.0000000000000000e+00  -2.1456983126078358e-04 -3.5571052227323895e-09 0.0000000000000000e+00  -2.1456983128592569e-04 -3.5571072256332728e-09 0.0000000000000000e+00  -2.1456983128311609e-04 -3.5571168423981225e-09 0.0000000000000000e+00  -2.1456983128176137e-04 -3.5571170066005416e-09 0.0000000000000000e+00  -2.1456983127302552e-04 -3.5571343012514960e-09 0.0000000000000000e+00  -2.1456983128832611e-04 -3.5571127669363663e-09 0.0000000000000000e+00  -2.1456983127139385e-04 -3.5571117130918546e-09 0.0000000000000000e+00  -2.1456983127766146e-04 7.2276856052248819e-10 0.0000000000000000e+00  -6.0130838223889185e-04 -6.6020554723026162e-09 0.0000000000000000e+00  -6.0130838224172942e-04 -6.6020635342131304e-09 0.0000000000000000e+00  -6.0130838222790617e-04 -6.6020388580969452e-09 0.0000000000000000e+00  -6.0130838223509682e-04 -6.6020421872481361e-09 0.