<?xml version="1.0"?>
<VTKFile type="UnstructuredGrid"  version="0.1"  >
<UnstructuredGrid>
<Piece  NumberOfPoints="961" NumberOfCells="1800">
<Points>
<DataArray  type="Float64"  NumberOfComponents="3"  format="ascii">0 0 0  0.03333333333333333 0 0  0.06666666666666667 0 0  0.1 0 0  0.1333333333333333 0 0  0.1666666666666667 0 0  0.2 0 0  0.2333333333333333 0 0  0.2666666666666667 0 0  0.3 0 0  0.3333333333333333 0 0  0.3666666666666666 0 0  0.4 0 0  0.4333333333333333 0 0  0.4666666666666667 0 0  0.5 0 0  0.5333333333333333 0 0  0.5666666666666667 0 0  0.6 0 0  0.6333333333333333 0 0  0.6666666666666666 0 0  0.7 0 0  0.7333333333333333 0 0  0.7666666666666667 0 0  0.8 0 0  0.8333333333333334 0 0  0.8666666666666667 0 0  0.9 0 0  0.9333333333333333 0 0  0.9666666666666667 0 0  1 0 0  0 0.03333333333333333 0  0.03333333333333333 0.03333333333333333 0  0.06666666666666667 0.03333333333333333 0  0.1 0.03333333333333333 0  0.1333333333333333 0.03333333333333333 0  0.1666666666666667 0.03333333333333333 0  0.2 0.03333333333333333 0  0.2333333333333333 0.03333333333333333 0  0.2666666666666667 0.03333333333333333 0  0.3 0.03333333333333333 0  0.3333333333333333 0.03333333333333333 0  0.3666666666666666 0.03333333333333333 0  0.4 0.03333333333333333 0  0.4333333333333333 0.03333333333333333 0  0.4666666666666667 0.03333333333333333 0  0.5 0.03333333333333333 0  0.5333333333333333 0.03333333333333333 0  0.5666666666666667 0.03333333333333333 0  0.6 0.03333333333333333 0  0.6333333333333333 0.03333333333333333 0  0.6666666666666666 0.03333333333333333 0  0.7 0.03333333333333333 0  0.7333333333333333 0.03333333333333333 0  0.7666666666666667 0.03333333333333333 0  0.8 0.03333333333333333 0  0.8333333333333334 0.03333333333333333 0  0.8666666666666667 0.03333333333333333 0  0.9 0.03333333333333333 0  0.9333333333333333 0.03333333333333333 0  0.9666666666666667 0.03333333333333333 0  1 0.03333333333333333 0  0 0.06666666666666667 0  0.03333333333333333 0.06666666666666667 0  0.06666666666666667 0.06666666666666667 0  0.1 0.06666666666666667 0  0.1333333333333333 0.06666666666666667 0  0.1666666666666667 0.06666666666666667 0  0.2 0.06666666666666667 0  0.2333333333333333 0.06666666666666667 0  0.2666666666666667 0.06666666666666667 0  0.3 0.06666666666666667 0  0.3333333333333333 0.06666666666666667 0  0.3666666666666666 0.06666666666666667 0  0.4 0.06666666666666667 0  0.4333333333333333 0.06666666666666667 0  0.4666666666666667 0.06666666666666667 0  0.5 0.06666666666666667 0  0.5333333333333333 0.06666666666666667 0  0.5666666666666667 0.06666666666666667 0  0.6 0.06666666666666667 0  0.6333333333333333 0.06666666666666667 0  0.6666666666666666 0.06666666666666667 0  0.7 0.06666666666666667 0  0.7333333333333333 0.06666666666666667 0  0.7666666666666667 0.06666666666666667 0  0.8 0.06666666666666667 0  0.8333333333333334 0.06666666666666667 0  0.8666666666666667 0.06666666666666667 0  0.9 0.06666666666666667 0  0.9333333333333333 0.06666666666666667 0  0.9666666666666667 0.06666666666666667 0  1 0.06666666666666667 0  0 0.1 0  0.03333333333333333 0.1 0  0.06666666666666667 0.1 0  0.1 0.1 0  0.1333333333333333 0.1 0  0.1666666666666667 0.1 0  0.2 0.1 0  0.2333333333333333 0.1 0  0.2666666666666667 0.1 0  0.3 0.1 0  0.3333333333333333 0.1 0  0.3666666666666666 0.1 0  0.4 0.1 0  0.4333333333333333 0.1 0  0.4666666666666667 0.1 0  0.5 0.1 0  0.5333333333333333 0.1 0  0.5666666666666667 0.1 0  0.6 0.1 0  0.6333333333333333 0.1 0  0.6666666666666666 0.1 0  0.7 0.1 0  0.7333333333333333 0.1 0  0.7666666666666667 0.1 0  0.8 0.1 0  0.8333333333333334 0.1 0  0.8666666666666667 0.1 0  0.9 0.1 0  0.9333333333333333 0.1 0  0.9666666666666667 0.1 0  1 0.1 0  0 0.1333333333333333 0  0.03333333333333333 0.1333333333333333 0  0.06666666666666667 0.1333333333333333 0  0.1 0.1333333333333333 0  0.1333333333333333 0.1333333333333333 0  0.1666666666666667 0.1333333333333333 0  0.2 0.1333333333333333 0  0.2333333333333333 0.1333333333333333 0  0.2666666666666667 0.1333333333333333 0  0.3 0.1333333333333333 0  0.3333333333333333 0.1333333333333333 0  0.3666666666666666 0.1333333333333333 0  0.4 0.1333333333333333 0  0.4333333333333333 0.1333333333333333 0  0.4666666666666667 0.1333333333333333 0  0.5 0.1333333333333333 0  0.5333333333333333 0.1333333333333333 0  0.5666666666666667 0.1333333333333333 0  0.6 0.1333333333333333 0  0.6333333333333333 0.1333333333333333 0  0.6666666666666666 0.1333333333333333 0  0.7 0.1333333333333333 0  0.7333333333333333 0.1333333333333333 0  0.7666666666666667 0.1333333333333333 0  0.8 0.1333333333333333 0  0.8333333333333334 0.1333333333333333 0  0.8666666666666667 0.1333333333333333 0  0.9 0.1333333333333333 0  0.9333333333333333 0.1333333333333333 0  0.9666666666666667 0.1333333333333333 0  1 0.1333333333333333 0  0 0.1666666666666667 0  0.03333333333333333 0.1666666666666667 0  0.06666666666666667 0.1666666666666667 0  0.1 0.1666666666666667 0  0.1333333333333333 0.1666666666666667 0  0.1666666666666667 0.1666666666666667 0  0.2 0.1666666666666667 0  0.2333333333333333 0.1666666666666667 0  0.2666666666666667 0.1666666666666667 0  0.3 0.1666666666666667 0  0.3333333333333333 0.1666666666666667 0  0.3666666666666666 0.1666666666666667 0  0.4 0.1666666666666667 0  0.4333333333333333 0.1666666666666667 0  0.4666666666666667 0.1666666666666667 0  0.5 0.1666666666666667 0  0.5333333333333333 0.1666666666666667 0  0.5666666666666667 0.1666666666666667 0  0.6 0.1666666666666667 0  0.6333333333333333 0.1666666666666667 0  0.6666666666666666 0.1666666666666667 0  0.7 0.1666666666666667 0  0.7333333333333333 0.1666666666666667 0  0.7666666666666667 0.1666666666666667 0  0.8 0.1666666666666667 0  0.8333333333333334 0.1666666666666667 0  0.8666666666666667 0.1666666666666667 0  0.9 0.1666666666666667 0  0.9333333333333333 0.1666666666666667 0  0.9666666666666667 0.1666666666666667 0  1 0.1666666666666667 0  0 0.2 0  0.03333333333333333 0.2 0  0.06666666666666667 0.2 0  0.1 0.2 0  0.1333333333333333 0.2 0  0.1666666666666667 0.2 0  0.2 0.2 0  0.2333333333333333 0.2 0  0.2666666666666667 0.2 0  0.3 0.2 0  0.3333333333333333 0.2 0  0.3666666666666666 0.2 0  0.4 0.2 0  0.4333333333333333 0.2 0  0.4666666666666667 0.2 0  0.5 0.2 0  0.5333333333333333 0.2 0  0.5666666666666667 0.2 0  0.6 0.2 0  0.6333333333333333 0.2 0  0.6666666666666666 0.2 0  0.7 0.2 0  0.7333333333333333 0.2 0  0.7666666666666667 0.2 0  0.8 0.2 0  0.8333333333333334 0.2 0  0.8666666666666667 0.2 0  0.9 0.2 0  0.9333333333333333 0.2 0  0.9666666666666667 0.2 0  1 0.2 0  0 0.2333333333333333 0  0.03333333333333333 0.2333333333333333 0  0.06666666666666667 0.2333333333333333 0  0.1 0.2333333333333333 0  0.1333333333333333 0.2333333333333333 0  0.1666666666666667 0.2333333333333333 0  0.2 0.2333333333333333 0  0.2333333333333333 0.2333333333333333 0  0.2666666666666667 0.2333333333333333 0  0.3 0.2333333333333333 0  0.3333333333333333 0.2333333333333333 0  0.3666666666666666 0.2333333333333333 0  0.4 0.2333333333333333 0  0.4333333333333333 0.2333333333333333 0  0.4666666666666667 0.2333333333333333 0  0.5 0.2333333333333333 0  0.5333333333333333 0.2333333333333333 0  0.5666666666666667 0.2333333333333333 0  0.6 0.2333333333333333 0  0.6333333333333333 0.2333333333333333 0  0.6666666666666666 0.2333333333333333 0  0.7 0.2333333333333333 0  0.7333333333333333 0.2333333333333333 0  0.7666666666666667 0.2333333333333333 0  0.8 0.2333333333333333 0  0.8333333333333334 0.2333333333333333 0  0.8666666666666667 0.2333333333333333 0  0.9 0.2333333333333333 0  0.9333333333333333 0.2333333333333333 0  0.9666666666666667 0.2333333333333333 0  1 0.2333333333333333 0  0 0.2666666666666667 0  0.03333333333333333 0.2666666666666667 0  0.06666666666666667 0.2666666666666667 0  0.1 0.2666666666666667 0  0.1333333333333333 0.2666666666666667 0  0.1666666666666667 0.2666666666666667 0  0.2 0.2666666666666667 0  0.2333333333333333 0.2666666666666667 0  0.2666666666666667 0.2666666666666667 0  0.3 0.2666666666666667 0  0.3333333333333333 0.2666666666666667 0  0.3666666666666666 0.2666666666666667 0  0.4 0.2666666666666667 0  0.4333333333333333 0.2666666666666667 0  0.4666666666666667 0.2666666666666667 0  0.5 0.2666666666666667 0  0.5333333333333333 0.2666666666666667 0  0.5666666666666667 0.2666666666666667 0  0.6 0.2666666666666667 0  0.6333333333333333 0.2666666666666667 0  0.6666666666666666 0.2666666666666667 0  0.7 0.2666666666666667 0  0.7333333333333333 0.2666666666666667 0  0.7666666666666667 0.2666666666666667 0  0.8 0.2666666666666667 0  0.8333333333333334 0.2666666666666667 0  0.8666666666666667 0.2666666666666667 0  0.9 0.2666666666666667 0  0.9333333333333333 0.2666666666666667 0  0.9666666666666667 0.2666666666666667 0  1 0.2666666666666667 0  0 0.3 0  0.03333333333333333 0.3 0  0.06666666666666667 0.3 0  0.1 0.3 0  0.1333333333333333 0.3 0  0.1666666666666667 0.3 0  0.2 0.3 0  0.2333333333333333 0.3 0  0.2666666666666667 0.3 0  0.3 0.3 0  0.3333333333333333 0.3 0  0.3666666666666666 0.3 0  0.4 0.3 0  0.4333333333333333 0.3 0  0.4666666666666667 0.3 0  0.5 0.3 0  0.5333333333333333 0.3 0  0.5666666666666667 0.3 0  0.6 0.3 0  0.6333333333333333 0.3 0  0.6666666666666666 0.3 0  0.7 0.3 0  0.7333333333333333 0.3 0  0.7666666666666667 0.3 0  0.8 0.3 0  0.8333333333333334 0.3 0  0.8666666666666667 0.3 0  0.9 0.3 0  0.9333333333333333 0.3 0  0.9666666666666667 0.3 0  1 0.3 0  0 0.3333333333333333 0  0.03333333333333333 0.3333333333333333 0  0.06666666666666667 0.3333333333333333 0  0.1 0.3333333333333333 0  0.1333333333333333 0.3333333333333333 0  0.1666666666666667 0.3333333333333333 0  0.2 0.3333333333333333 0  0.2333333333333333 0.3333333333333333 0  0.2666666666666667 0.3333333333333333 0  0.3 0.3333333333333333 0  0.3333333333333333 0.3333333333333333 0  0.3666666666666666 0.3333333333333333 0  0.4 0.3333333333333333 0  0.4333333333333333 0.3333333333333333 0  0.4666666666666667 0.3333333333333333 0  0.5 0.3333333333333333 0  0.5333333333333333 0.33333333333333
[...]
<PointData  Vectors="u_f"> 
<DataArray  type="Float64"  Name="u_f"  NumberOfComponents="3" format="ascii">2.7096392357233183e-06 3.2060837829527532e-09 0.0000000000000000e+00  2.7096392407381328e-06 3.2060734942536070e-09 0.0000000000000000e+00  2.7096392344306782e-06 3.2060707605462493e-09 0.0000000000000000e+00  2.7096392242919242e-06 3.2060605929524859e-09 0.0000000000000000e+00  2.7096392318774363e-06 3.2060691615106753e-09 0.0000000000000000e+00  2.7096392167156279e-06 3.2060688593977399e-09 0.0000000000000000e+00  2.7096392302318343e-06 3.2060751728154105e-09 0.0000000000000000e+00  2.7096392263764113e-06 3.2060703925680320e-09 0.0000000000000000e+00  2.7096392242445446e-06 3.2060740138574982e-09 0.0000000000000000e+00  2.7096392289249370e-06 3.2060618649384746e-09 0.0000000000000000e+00  2.7096392388046751e-06 3.2061038727853285e-09 0.0000000000000000e+00  2.7096392058149508e-06 3.2059516552455404e-09 0.0000000000000000e+00  2.7096391727778469e-06 3.2060512604654458e-09 0.0000000000000000e+00  2.7096392152623091e-06 3.2060657365702225e-09 0.0000000000000000e+00  2.7096392387207036e-06 3.2060766775796057e-09 0.0000000000000000e+00  2.7096392209960581e-06 3.2060583830231977e-09 0.0000000000000000e+00  2.7096392234493365e-06 3.2060697437272419e-09 0.0000000000000000e+00  2.7096392334623231e-06 3.2060616725467991e-09 0.0000000000000000e+00  2.7096392235723393e-06 3.2060863348394066e-09 0.0000000000000000e+00  2.7096392335374583e-06 3.2060795771698958e-09 0.0000000000000000e+00  2.7096392239939855e-06 3.2060690684319187e-09 0.0000000000000000e+00  2.7096392295240129e-06 3.2060534469759670e-09 0.0000000000000000e+00  2.7096392798810838e-06 3.2061739446091059e-09 0.0000000000000000e+00  2.7096392842064542e-06 3.2061007032829075e-09 0.0000000000000000e+00  2.7096392473639091e-06 3.2060806890192237e-09 0.0000000000000000e+00  2.7096392181497021e-06 3.2060669772227685e-09 0.0000000000000000e+00  2.7096392328582056e-06 3.2060776666430375e-09 0.0000000000000000e+00  2.7096392255765954e-06 3.2060691700758724e-09 0.0000000000000000e+00  2.7096392360442963e-06 3.2060734409108602e-09 0.0000000000000000e+00  2.7096392363841395e-06 3.2060721548302432e-09 0.0000000000000000e+00  2.7096392357233725e-06 -7.9413037792382098e-10 0.0000000000000000e+00  4.1705322332719898e-04 4.9682373168833185e-09 0.0000000000000000e+00  4.1705322331380421e-04 4.9682650261635014e-09 0.0000000000000000e+00  4.1705322331755620e-04 4.9682435212302506e-09 0.0000000000000000e+00  4.1705322332705175e-04 4.9682441211193126e-09 0.0000000000000000e+00  4.1705322332027180e-04 4.9682431256048779e-09 0.0000000000000000e+00  4.1705322332249528e-04 4.9682355688241558e-09 0.0000000000000000e+00  4.1705322330367928e-04 4.9682526549830325e-09 0.0000000000000000e+00  4.1705322332017184e-04 4.9682650518590929e-09 0.0000000000000000e+00  4.1705322331609730e-04 4.9682405003177374e-09 0.0000000000000000e+00  4.1705322331781793e-04 4.9682535336204731e-09 0.0000000000000000e+00  4.1705322332023136e-04 4.9682405527931225e-09 0.0000000000000000e+00  4.1705322326479448e-04 4.9681656441808233e-09 0.0000000000000000e+00  4.1705322327563986e-04 4.9682462163400110e-09 0.0000000000000000e+00  4.1705322333079420e-04 4.9682426878040406e-09 0.0000000000000000e+00  4.1705322331105272e-04 4.9682365286683391e-09 0.0000000000000000e+00  4.1705322331615498e-04 4.9682605831029986e-09 0.0000000000000000e+00  4.1705322332924574e-04 4.9682562384880530e-09 0.0000000000000000e+00  4.1705322331305091e-04 4.9682795822281883e-09 0.0000000000000000e+00  4.1705322332286391e-04 4.9682696617783101e-09 0.0000000000000000e+00  4.1705322331471060e-04 4.9682433467821210e-09 0.0000000000000000e+00  4.1705322331692162e-04 4.9682631526621474e-09 0.0000000000000000e+00  4.1705322331655331e-04 4.9682469247577105e-09 0.0000000000000000e+00  4.1705322339699667e-04 4.9683527548159689e-09 0.0000000000000000e+00  4.1705322337694359e-04 4.9682787682091972e-09 0.0000000000000000e+00  4.1705322331814167e-04 4.9682703806043504e-09 0.0000000000000000e+00  4.1705322334509016e-04 4.9682688618539472e-09 0.0000000000000000e+00  4.1705322330832270e-04 4.9682609355771248e-09 0.0000000000000000e+00  4.1705322331002902e-04 4.9682709102371117e-09 0.0000000000000000e+00  4.1705322333356911e-04 4.9682688968736774e-09 0.0000000000000000e+00  4.1705322332045557e-04 4.9682543354963998e-09 0.0000000000000000e+00  4.1705322332719920e-04 -3.1027914264878401e-09 0.0000000000000000e+00  7.5928446494057816e-04 5.6692495521227029e-09 0.0000000000000000e+00  7.5928446496963608e-04 5.6692444457473110e-09 0.0000000000000000e+00  7.5928446495342498e-04 5.6692408030448518e-09 0.0000000000000000e+00  7.5928446494231017e-04 5.6692576348498988e-09 0.0000000000000000e+00  7.5928446496916976e-04 5.6692407923112503e-09 0.0000000000000000e+00  7.5928446494710246e-04 5.6692548800005987e-09 0.0000000000000000e+00  7.5928446496668185e-04 5.6692281483455148e-09 0.0000000000000000e+00  7.5928446492877163e-04 5.6692256632457153e-09 0.0000000000000000e+00  7.5928446495241169e-04 5.6692413998981478e-09 0.0000000000000000e+00  7.5928446495332653e-04 5.6692607381617771e-09 0.0000000000000000e+00  7.5928446496606027e-04 5.6692482759083257e-09 0.0000000000000000e+00  7.5928446487253949e-04 5.6691406132231351e-09 0.0000000000000000e+00  7.5928446490320409e-04 5.6692147728685735e-09 0.0000000000000000e+00  7.5928446496812947e-04 5.6692525980802863e-09 0.0000000000000000e+00  7.5928446494258177e-04 5.6692337201688994e-09 0.0000000000000000e+00  7.5928446495193962e-04 5.6692428493680322e-09 0.0000000000000000e+00  7.5928446496167728e-04 5.6692482630063198e-09 0.0000000000000000e+00  7.5928446494136540e-04 5.6692295769987175e-09 0.0000000000000000e+00  7.5928446495927338e-04 5.6692320976603483e-09 0.0000000000000000e+00  7.5928446496146792e-04 5.6692369992299499e-09 0.0000000000000000e+00  7.5928446494215361e-04 5.6692449165078942e-09 0.0000000000000000e+00  7.5928446496620328e-04 5.6692027544874915e-09 0.0000000000000000e+00  7.5928446500414634e-04 5.6693402277450955e-09 0.0000000000000000e+00  7.5928446501424645e-04 5.6692502738760892e-09 0.0000000000000000e+00  7.5928446494404251e-04 5.6692328244010645e-09 0.0000000000000000e+00  7.5928446496779229e-04 5.6692387934761251e-09 0.0000000000000000e+00  7.5928446493681522e-04 5.6692458381881611e-09 0.0000000000000000e+00  7.5928446495689139e-04 5.6692450233018082e-09 0.0000000000000000e+00  7.5928446495445085e-04 5.6692562278807396e-09 0.0000000000000000e+00  7.5928446496012654e-04 5.6692212000190520e-09 0.0000000000000000e+00  7.5928446494057859e-04 -4.7622057830656071e-09 0.0000000000000000e+00  9.7022860068207012e-04 5.5455181046173974e-09 0.0000000000000000e+00  9.7022860068618206e-04 5.5455074122155723e-09 0.0000000000000000e+00  9.7022860068545652e-04 5.5455072105539682e-09 0.0000000000000000e+00  9.7022860069490490e-04 5.5455189826043166e-09 0.0000000000000000e+00  9.7022860069504000e-04 5.5455194581353895e-09 0.0000000000000000e+00  9.7022860068347113e-04 5.5455183969183031e-09 0.0000000000000000e+00  9.7022860067667665e-04 5.5455276351881744e-09 0.0000000000000000e+00  9.7022860069512218e-04 5.5455327315889064e-09 0.0000000000000000e+00  9.7022860070266844e-04 5.5455369272344734e-09 0.0000000000000000e+00  9.7022860069571849e-04 5.5455192937703401e-09 0.0000000000000000e+00  9.7022860069288764e-04 5.5455318761533923e-09 0.0000000000000000e+00  9.7022860066764481e-04 5.5455722817662756e-09 0.0000000000000000e+00  9.7022860072801774e-04 5.5455213450808505e-09 0.0000000000000000e+00  9.7022860068038874e-04 5.5455212832813267e-09 0.0000000000000000e+00  9.7022860070187134e-04 5.5455140802757735e-09 0.0000000000000000e+00  9.7022860069414466e-04 5.5455140024300575e-09 0.0000000000000000e+00  9.7022860068704357e-04 5.5454977213997142e-09 0.0000000000000000e+00  9.7022860066337934e-04 5.5455038480093505e-09 0.0000000000000000e+00  9.7022860070709914e-04 5.5455292623587948e-09 0.0000000000000000e+00  9.7022860068098201e-04 5.5455070071576407e-09 0.0000000000000000e+00  9.7022860067760212e-04 5.5455193026607980e-09 0.0000000000000000e+00  9.7022860069395493e-04 5.5455429285103386e-09 0.0000000000000000e+00  9.7022860072312604e-04 5.5455032237257396e-09 0.0000000000000000e+00  9.7022860067959185e-04 5.5455080456064815e-09 0.0000000000000000e+00  9.7022860067912413e-04 5.5455180618998318e-09 0.0000000000000000e+00  9.7022860070881912e-04 5.5455131582702460e-09 0.0000000000000000e+00  9.7022860069214062e-04 5.5455118353267552e-09 0.0000000000000000e+00  9.7022860067464507e-04 5.5455114044648118e-09 0.0000000000000000e+00  9.7022860070297636e-04 5.5455000556869916e-09 0.0000000000000000e+00  9.7022860068256061e-04 5.5455052659289517e-09 0.0000000000000000e+00  9.7022860068207034e-04 -5.5956019839300320e-09 0.0000000000000000e+00  1.0134115324587465e-03 4.8187718588608638e-09 0.0000000000000000e+00  1.0134115324502225e-03 4.8188224468668703e-09 0.0000000000000000e+00  1.0134115324687558e-03 4.8188011157312277e-09 0.0000000000000000e+00  1.0134115324601826e-03 4.8187916166023137e-09 0.0000000000000000e+00  1.0134115324747421e-03 4.8187877002472262e-09 0.0000000000000000e+00  1.0134115324613589e-03 4.8188172679583530e-09 0.0000000000000000e+00  1.0134115324822110e-03 4.8188012024674015e-09 0.0000000000000000e+00  1.0134115324438302e-03 4.8187839946610411e-09 0.0000000000000000e+00  1.0134115324607605e-03 4.8187652895714805e-09 0.0000000000000000e+00  1.0134115324656006e-03 4.8187962689138358e-09 0.0000000000000000e+00  1.0134115324571848e-03 4.8188015321732822e-09 0.0000000000000000e+00  1.0134115324617705e-03 4.8188201318783916e-09 0.0000000000000000e+00  1.0134115324848315e-03 4.8188093909043092e-09 0.0000000000000000e+00  1.0134115324706215e-03 4.8188057502618342e-09 0.0000000000000000e+00  1.0134115324665039e-03 4.8188054447336620e-09 0.0000000000000000e+00  1.0134115324731642e-03 4.8187989352922386e-09 0.0000000000000000e+00  1.0134115324643815e-03 4.8187895644244416e-09 0.0000000000000000e+00  1.0134115324686517e-03 4.8188023573595556e-09 0.0000000000000000e+00  1.0134115324540349e-03 4.8188062280697316e-09 0.0000000000000000e+00  1.0134115324659668e-03 4.8187904342798446e-09 0.0000000000000000e+00  1.0134115324557094e-03 4.8187883413359708e-09 0.0000000000000000e+00  1.0134115324687695e-03 4.8187635763152076e-09 0.0000000000000000e+00  1.0134115324536533e-03 4.8187839682065081e-09 0.0000000000000000e+00  1.0134115324796941e-03 4.8188132044770307e-09 0.0000000000000000e+00  1.0134115324642373e-03 4.8188152235867365e-09 0.0000000000000000e+00  1.0134115324556528e-03 4.8187897372462679e-09 0.0000000000000000e+00  1.0134115324618048e-03 4.8188070618212023e-09 0.0000000000000000e+00  1.0134115324555641e-03 4.8188061168305887e-09 0.0000000000000000e+00  1.0134115324661123e-03 4.8188090807140677e-09 0.0000000000000000e+00  1.0134115324736065e-03 4.8188061834006021e-09 0.0000000000000000e+00  1.0134115324587467e-03 -5.5513462544458633e-09 0.0000000000000000e+00  8.8136649115602120e-04 3.5253843109735519e-09 0.0000000000000000e+00  8.8136649114803963e-04 3.5253695156254455e-09 0.0000000000000000e+00  8.8136649114080106e-04 3.5253770533242093e-09 0.0000000000000000e+00  8.8136649115435587e-04 3.5253580494285300e-09 0.0000000000000000e+00  8.8136649114232567e-04 3.5253557998174423e-09 0.0000000000000000e+00  8.8136649114416090e-04 3.5253617211876073e-09 0.0000000000000000e+00  8.8136649113891422e-04 3.5253612265745762e-09 0.0000000000000000e+00  8.8136649114726258e-04 3.5253610551622128e-09 0.0000000000000000e+00  8.8136649112482784e-04 3.5253558831925894e-09 0.0000000000000000e+00  8.8136649113344453e-04 3.5253466887244858e-09 0.0000000000000000e+00  8.8136649114509689e-04 3.5253881464471573e-09 0.0000000000000000e+00  8.8136649115003911e-04 3.5253769811163446e-09 0.0000000000000000e+00  8.8136649113993576e-04 3.5253755637388445e-09 0.0000000000000000e+00  8.8136649116645871e-04 3.5253755664493500e-09 0.0000000000000000e+00  8.8136649113806497e-04 3.5253617122971495e-09 0.0000000000000000e+00  8.8136649115665990e-04 3.5253893038329764e-09 0.0000000000000000e+00  8.8136649114783536e-04 3.5253627156178399e-09 0.0000000000000000e+00  8.8136649114293195e-04 3.5253587850597040e-09 0.0000000000000000e+00  8.8136649113738864e-04 3.5253845720494351e-09 0.0000000000000000e+00  8.8136649116809466e-04 3.5253643047329641e-09 0.0000000000000000e+00  8.8136649111886017e-04 3.5253547588749365e-09 0.0000000000000000e+00  8.8136649114511142e-04 3.5253528880840879e-09 0.0000000000000000e+00  8.8136649112415444e-04 3.5253806524417411e-09 0.0000000000000000e+00  8.8136649116868989e-04 3.5253865275164734e-09 0.0000000000000000e+00  8.8136649116178135e-04 3.5253688582736684e-09 0.0000000000000000e+00  8.8136649114360372e-04 3.5253608305155226e-09 0.0000000000000000e+00  8.8136649113049138e-04 3.5253673661946386e-09 0.0000000000000000e+00  8.8136649115712784e-04 3.5253678569045419e-09 0.0000000000000000e+00  8.8136649115208121e-04 3.5253774213024267e-09 0.0000000000000000e+00  8.8136649114608774e-04 3.5253696718589786e-09 0.0000000000000000e+00  8.8136649115602163e-04 -4.6507502379602220e-09 0.0000000000000000e+00  5.9692513993183120e-04 1.5694386977624548e-09 0.0000000000000000e+00  5.9692513993070363e-04 1.5694305817502523e-09 0.0000000000000000e+00  5.9692513991431168e-04 1.5694555774892378e-09 0.0000000000000000e+00  5.9692513992424439e-04 1.5694583338564209e-09 0.0000000000000000e+00  5.9692513991971025e-04 1.5694657474682461e-09 0.0000000000000000e+00  5.9692513992654962e-04 1.5694375581033412e-09 0.0000000000000000e+00  5.9692513992098701e-04 1.5694397168040768e-09 0.0000000000000000e+00  5.9692513992616364e-04 1.5694446387024691e-09 0.0000000000000000e+00  5.9692513990280819e-04 1.5694498764289543e-09 0.0000000000000000e+00  5.9692513992702710e-04 1.5694527573709670e-09 0.0000000000000000e+00  5.9692513992275296e-04 1.5694302218493411e-09 0.0000000000000000e+00  5.9692513990271842e-04 1.5694560157779661e-09 0.0000000000000000e+00  5.9692513994065444e-04 1.5694643865234691e-09 0.0000000000000000e+00  5.9692513992106139e-04 1.5694636153304638e-09 0.0000000000000000e+00  5.9692513992768803e-04 1.5694488115797905e-09 0.0000000000000000e+00  5.9692513993132011e-04 1.5694440930777258e-09 0.0000000000000000e+00  5.9692513992644109e-04 1.5694622798644378e-09 0.0000000000000000e+00  5.9692513991506954e-04 1.5694250351345682e-09 0.0000000000000000e+00  5.9692513991427255e-04 1.5694243205911264e-09 0.0000000000000000e+00  5.9692513991355697e-04 1.5694604462075136e-09 0.0000000000000000e+00  5.9692513992735041e-04 1.5694541730137436e-09 0.0000000000000000e+00  5.9692513993782901e-04 1.5694810898505586e-09 0.0000000000000000e+00  5.9692513991701590e-04 1.5694673102372575e-09 0.0000000000000000e+00  5.9692513993792702e-04 1.5694472292409299e-09 0.0000000000000000e+00  5.9692513992208802e-04 1.5694397031973395e-09 0.0000000000000000e+00  5.9692513992097855e-04 1.5694619684273638e-09 0.0000000000000000e+00  5.9692513991374215e-04 1.5694750640175142e-09 0.0000000000000000e+00  5.9692513993891646e-04 1.5694633255232231e-09 0.0000000000000000e+00  5.9692513990328340e-04 1.5694578005915824e-09 0.0000000000000000e+00  5.9692513993504933e-04 1.5694702710307602e-09 0.0000000000000000e+00  5.9692513993183142e-04 -2.9771073834307016e-09 0.0000000000000000e+00  2.0926985400903552e-04 -1.0488707633004614e-09 0.0000000000000000e+00  2.0926985401874325e-04 -1.0489096453111368e-09 0.0000000000000000e+00  2.0926985399872237e-04 -1.0489054414933958e-09 0.0000000000000000e+00  2.0926985400393370e-04 -1.0489061479324263e-09 0.0000000000000000e+00  2.0926985398861126e-04 -1.0489253199878626e-09 0.0000000000000000e+00  2.0926985399550690e-04 -1.0488758404159472e-09 0.0000000000000000e+00  2.0926985401021364e-04 -1.0489159650713901e-09 0.0000000000000000e+00  2.0926985400099779e-04 -1.0489167092271037e-09 0.0000000000000000e+00  2.0926985399214349e-04 -1.0489071539907273e-09 0.0000000000000000e+00  2.0926985399762386e-04 -1.0489006832417689e-09 0.0000000000000000e+00  2.0926985399235054e-04 -1.0488823873843183e-09 0.0000000000000000e+00  2.0926985399338181e-04 -1.0489059312275171e-09 0.0000000000000000e+00  2.0926985399107116e-04 -1.0489526621842949e-09 0.0000000000000000e+00  2.0926985399617639e-04 -1.0489022064645061e-09 0.0000000000000000e+00  2.0926985400659292e-04 -1.0489015125886682e-09 0.0000000000000000e+00  2.0926985400634258e-04 -1.0489059295063462e-09 0.0000000000000000e+00  2.0926985399672603e-04 -1.0489395503853220e-09 0.0000000000000000e+00  2.0926985398619569e-04 -1.0489245598672720e-09 0.0000000000000000e+00  2.0926985399146608e-04 -1.0489243697795261e-09 0.0000000000000000e+00  2.0926985399454678e-04 -1.0488781836885501e-09 0.0000000000000000e+00  2.0926985400938116e-04 -1.0488857164677465e-09 0.0000000000000000e+00  2.0926985401337775e-04 -1.0489192317860883e-09 0.0000000000000000e+00  2.0926985400505804e-04 -1.0489180469292966e-09 0.0000000000000000e+00  2.0926985399061411e-04 -1.0489280630871217e-09 0.0000000000000000e+00  2.0926985398747746e-04 -1.0489051213827044e-09 0.0000000000000000e+00  2.0926985401622936e-04 -1.0489223375374215e-09 0.0000000000000000e+00  2.0926985398291058e-04 -1.0489069296150877e-09 0.0000000000000000e+00  2.0926985399409836e-04 -1.0488949895676126e-09 0.0000000000000000e+00  2.0926985401286441e-04 -1.0489037765247771e-09 0.0000000000000000e+00  2.0926985399233767e-04 -1.0489012240011550e-09 0.0000000000000000e+00  2.0926985400903552e-04 -7.1028335720726747e-10 0.0000000000000000e+00  -2.1457028008966888e-04 -4.0104980139794855e-09 0.0000000000000000e+00  -2.1457028008026462e-04 -4.0104813863297076e-09 0.0000000000000000e+00  -2.1457028008646316e-04 -4.0104816785221931e-09 0.0000000000000000e+00  -2.1457028008904774e-04 -4.0104947331295014e-09 0.0000000000000000e+00  -2.1457028010185732e-04 -4.0104920614385080e-09 0.0000000000000000e+00  -2.1457028007777692e-04 -4.0105075998987834e-09 0.0000000000000000e+00  -2.1457028009577879e-04 -4.0104891351768444e-09 0.0000000000000000e+00  -2.1457028009937677e-04 -4.0104981543836668e-09 0.0000000000000000e+00  -2.1457028010706187e-04 -4.0104888749141129e-09 0.0000000000000000e+00  -2.1457028005739467e-04 -4.0104911147131710e-09 0.0000000000000000e+00  -2.1457028009983734e-04 -4.0105241246577751e-09 0.0000000000000000e+00  -2.1457028010426511e-04 -4.0104807475177875e-09 0.0000000000000000e+00  -2.1457028008299778e-04 -4.0104860405385835e-09 0.0000000000000000e+00  -2.1457028009199471e-04 -4.0104846853400780e-09 0.0000000000000000e+00  -2.1457028008273291e-04 -4.0104791881098029e-09 0.0000000000000000e+00  -2.1457028009819954e-04 -4.0104937014569242e-09 0.0000000000000000e+00  -2.1457028008265713e-04 -4.0104752731099681e-09 0.0000000000000000e+00  -2.1457028007800812e-04 -4.0104831276668168e-09 0.0000000000000000e+00  -2.1457028010036020e-04 -4.0105231664398951e-09 0.0000000000000000e+00  -2.1457028010331107e-04 -4.0104989865088342e-09 0.0000000000000000e+00  -2.1457028008696157e-04 -4.0104889695649626e-09 0.0000000000000000e+00  -2.1457028007537617e-04 -4.0104896163999787e-09 0.0000000000000000e+00  -2.1457028009544014e-04 -4.0105160349374752e-09 0.0000000000000000e+00  -2.1457028010283586e-04 -4.0104933076204850e-09 0.0000000000000000e+00  -2.1457028010631447e-04 -4.0105028751625561e-09 0.0000000000000000e+00  -2.1457028007860752e-04 -4.0104718779308650e-09 0.0000000000000000e+00  -2.1457028009263791e-04 -4.0105054156650867e-09 0.0000000000000000e+00  -2.1457028009946974e-04 -4.0104859538566198e-09 0.0000000000000000e+00  -2.1457028007797814e-04 -4.0104824305248199e-09 0.0000000000000000e+00  -2.1457028008659831e-04 -4.0104986217290133e-09 0.0000000000000000e+00  -2.1457028008966904e-04 1.8329842199017981e-09 0.0000000000000000e+00  -6.0130937926053125e-04 -6.6440577174090715e-09 0.0000000000000000e+00  -6.0130937928467210e-04 -6.6440816595203858e-09 0.0000000000000000e+00  -6.0130937927472953e-04 -6.6440722291298895e-09 0.0000000000000000e+00  -6.0130937925503879e-04 -6.6440518969781287e-09 0