<?xml version="1.0"?>
<VTKFile type="UnstructuredGrid"  version="0.1"  >
<UnstructuredGrid>
<Piece  NumberOfPoints="961" NumberOfCells="1800">
<Points>
<DataArray  type="Float64"  NumberOfComponents="3"  format="ascii">0 0 0  0.03333333333333333 0 0  0.06666666666666667 0 0  0.1 0 0  0.1333333333333333 0 0  0.1666666666666667 0 0  0.2 0 0  0.2333333333333333 0 0  0.2666666666666667 0 0  0.3 0 0  0.3333333333333333 0 0  0.3666666666666666 0 0  0.4 0 0  0.4333333333333333 0 0  0.4666666666666667 0 0  0.5 0 0  0.5333333333333333 0 0  0.5666666666666667 0 0  0.6 0 0  0.6333333333333333 0 0  0.6666666666666666 0 0  0.7 0 0  0.7333333333333333 0 0  0.7666666666666667 0 0  0.8 0 0  0.8333333333333334 0 0  0.8666666666666667 0 0  0.9 0 0  0.9333333333333333 0 0  0.9666666666666667 0 0  1 0 0  0 0.03333333333333333 0  0.03333333333333333 0.03333333333333333 0  0.06666666666666667 0.03333333333333333 0  0.1 0.03333333333333333 0  0.1333333333333333 0.03333333333333333 0  0.1666666666666667 0.03333333333333333 0  0.2 0.03333333333333333 0  0.2333333333333333 0.03333333333333333 0  0.2666666666666667 0.03333333333333333 0  0.3 0.03333333333333333 0  0.3333333333333333 0.03333333333333333 0  0.3666666666666666 0.03333333333333333 0  0.4 0.03333333333333333 0  0.4333333333333333 0.03333333333333333 0  0.4666666666666667 0.03333333333333333 0  0.5 0.03333333333333333 0  0.5333333333333333 0.03333333333333333 0  0.5666666666666667 0.03333333333333333 0  0.6 0.03333333333333333 0  0.6333333333333333 0.03333333333333333 0  0.6666666666666666 0.03333333333333333 0  0.7 0.03333333333333333 0  0.7333333333333333 0.03333333333333333 0  0.7666666666666667 0.03333333333333333 0  0.8 0.03333333333333333 0  0.8333333333333334 0.03333333333333333 0  0.8666666666666667 0.03333333333333333 0  0.9 0.03333333333333333 0  0.9333333333333333 0.03333333333333333 0  0.9666666666666667 0.03333333333333333 0  1 0.03333333333333333 0  0 0.06666666666666667 0  0.03333333333333333 0.06666666666666667 0  0.06666666666666667 0.06666666666666667 0  0.1 0.06666666666666667 0  0.1333333333333333 0.06666666666666667 0  0.1666666666666667 0.06666666666666667 0  0.2 0.06666666666666667 0  0.2333333333333333 0.06666666666666667 0  0.2666666666666667 0.06666666666666667 0  0.3 0.06666666666666667 0  0.3333333333333333 0.06666666666666667 0  0.3666666666666666 0.06666666666666667 0  0.4 0.06666666666666667 0  0.4333333333333333 0.06666666666666667 0  0.4666666666666667 0.06666666666666667 0  0.5 0.06666666666666667 0  0.5333333333333333 0.06666666666666667 0  0.5666666666666667 0.06666666666666667 0  0.6 0.06666666666666667 0  0.6333333333333333 0.06666666666666667 0  0.6666666666666666 0.06666666666666667 0  0.7 0.06666666666666667 0  0.7333333333333333 0.06666666666666667 0  0.7666666666666667 0.06666666666666667 0  0.8 0.06666666666666667 0  0.8333333333333334 0.06666666666666667 0  0.8666666666666667 0.06666666666666667 0  0.9 0.06666666666666667 0  0.9333333333333333 0.06666666666666667 0  0.9666666666666667 0.06666666666666667 0  1 0.06666666666666667 0  0 0.1 0  0.03333333333333333 0.1 0  0.06666666666666667 0.1 0  0.1 0.1 0  0.1333333333333333 0.1 0  0.1666666666666667 0.1 0  0.2 0.1 0  0.2333333333333333 0.1 0  0.2666666666666667 0.1 0  0.3 0.1 0  0.3333333333333333 0.1 0  0.3666666666666666 0.1 0  0.4 0.1 0  0.4333333333333333 0.1 0  0.4666666666666667 0.1 0  0.5 0.1 0  0.5333333333333333 0.1 0  0.5666666666666667 0.1 0  0.6 0.1 0  0.6333333333333333 0.1 0  0.6666666666666666 0.1 0  0.7 0.1 0  0.7333333333333333 0.1 0  0.7666666666666667 0.1 0  0.8 0.1 0  0.8333333333333334 0.1 0  0.8666666666666667 0.1 0  0.9 0.1 0  0.9333333333333333 0.1 0  0.9666666666666667 0.1 0  1 0.1 0  0 0.1333333333333333 0  0.03333333333333333 0.1333333333333333 0  0.06666666666666667 0.1333333333333333 0  0.1 0.1333333333333333 0  0.1333333333333333 0.1333333333333333 0  0.1666666666666667 0.1333333333333333 0  0.2 0.1333333333333333 0  0.2333333333333333 0.1333333333333333 0  0.2666666666666667 0.1333333333333333 0  0.3 0.1333333333333333 0  0.3333333333333333 0.1333333333333333 0  0.3666666666666666 0.1333333333333333 0  0.4 0.1333333333333333 0  0.4333333333333333 0.1333333333333333 0  0.4666666666666667 0.1333333333333333 0  0.5 0.1333333333333333 0  0.5333333333333333 0.1333333333333333 0  0.5666666666666667 0.1333333333333333 0  0.6 0.1333333333333333 0  0.6333333333333333 0.1333333333333333 0  0.6666666666666666 0.1333333333333333 0  0.7 0.1333333333333333 0  0.7333333333333333 0.1333333333333333 0  0.7666666666666667 0.1333333333333333 0  0.8 0.1333333333333333 0  0.8333333333333334 0.1333333333333333 0  0.8666666666666667 0.1333333333333333 0  0.9 0.1333333333333333 0  0.9333333333333333 0.1333333333333333 0  0.9666666666666667 0.1333333333333333 0  1 0.1333333333333333 0  0 0.1666666666666667 0  0.03333333333333333 0.1666666666666667 0  0.06666666666666667 0.1666666666666667 0  0.1 0.1666666666666667 0  0.1333333333333333 0.1666666666666667 0  0.1666666666666667 0.1666666666666667 0  0.2 0.1666666666666667 0  0.2333333333333333 0.1666666666666667 0  0.2666666666666667 0.1666666666666667 0  0.3 0.1666666666666667 0  0.3333333333333333 0.1666666666666667 0  0.3666666666666666 0.1666666666666667 0  0.4 0.1666666666666667 0  0.4333333333333333 0.1666666666666667 0  0.4666666666666667 0.1666666666666667 0  0.5 0.1666666666666667 0  0.5333333333333333 0.1666666666666667 0  0.5666666666666667 0.1666666666666667 0  0.6 0.1666666666666667 0  0.6333333333333333 0.1666666666666667 0  0.6666666666666666 0.1666666666666667 0  0.7 0.1666666666666667 0  0.7333333333333333 0.1666666666666667 0  0.7666666666666667 0.1666666666666667 0  0.8 0.1666666666666667 0  0.8333333333333334 0.1666666666666667 0  0.8666666666666667 0.1666666666666667 0  0.9 0.1666666666666667 0  0.9333333333333333 0.1666666666666667 0  0.9666666666666667 0.1666666666666667 0  1 0.1666666666666667 0  0 0.2 0  0.03333333333333333 0.2 0  0.06666666666666667 0.2 0  0.1 0.2 0  0.1333333333333333 0.2 0  0.1666666666666667 0.2 0  0.2 0.2 0  0.2333333333333333 0.2 0  0.2666666666666667 0.2 0  0.3 0.2 0  0.3333333333333333 0.2 0  0.3666666666666666 0.2 0  0.4 0.2 0  0.4333333333333333 0.2 0  0.4666666666666667 0.2 0  0.5 0.2 0  0.5333333333333333 0.2 0  0.5666666666666667 0.2 0  0.6 0.2 0  0.6333333333333333 0.2 0  0.6666666666666666 0.2 0  0.7 0.2 0  0.7333333333333333 0.2 0  0.7666666666666667 0.2 0  0.8 0.2 0  0.8333333333333334 0.2 0  0.8666666666666667 0.2 0  0.9 0.2 0  0.9333333333333333 0.2 0  0.9666666666666667 0.2 0  1 0.2 0  0 0.2333333333333333 0  0.03333333333333333 0.2333333333333333 0  0.06666666666666667 0.2333333333333333 0  0.1 0.2333333333333333 0  0.1333333333333333 0.2333333333333333 0  0.1666666666666667 0.2333333333333333 0  0.2 0.2333333333333333 0  0.2333333333333333 0.2333333333333333 0  0.2666666666666667 0.2333333333333333 0  0.3 0.2333333333333333 0  0.3333333333333333 0.2333333333333333 0  0.3666666666666666 0.2333333333333333 0  0.4 0.2333333333333333 0  0.4333333333333333 0.2333333333333333 0  0.4666666666666667 0.2333333333333333 0  0.5 0.2333333333333333 0  0.5333333333333333 0.2333333333333333 0  0.5666666666666667 0.2333333333333333 0  0.6 0.2333333333333333 0  0.6333333333333333 0.2333333333333333 0  0.6666666666666666 0.2333333333333333 0  0.7 0.2333333333333333 0  0.7333333333333333 0.2333333333333333 0  0.7666666666666667 0.2333333333333333 0  0.8 0.2333333333333333 0  0.8333333333333334 0.2333333333333333 0  0.8666666666666667 0.2333333333333333 0  0.9 0.2333333333333333 0  0.9333333333333333 0.2333333333333333 0  0.9666666666666667 0.2333333333333333 0  1 0.2333333333333333 0  0 0.2666666666666667 0  0.03333333333333333 0.2666666666666667 0  0.06666666666666667 0.2666666666666667 0  0.1 0.2666666666666667 0  0.1333333333333333 0.2666666666666667 0  0.1666666666666667 0.2666666666666667 0  0.2 0.2666666666666667 0  0.2333333333333333 0.2666666666666667 0  0.2666666666666667 0.2666666666666667 0  0.3 0.2666666666666667 0  0.3333333333333333 0.2666666666666667 0  0.3666666666666666 0.2666666666666667 0  0.4 0.2666666666666667 0  0.4333333333333333 0.2666666666666667 0  0.4666666666666667 0.2666666666666667 0  0.5 0.2666666666666667 0  0.5333333333333333 0.2666666666666667 0  0.5666666666666667 0.2666666666666667 0  0.6 0.2666666666666667 0  0.6333333333333333 0.2666666666666667 0  0.6666666666666666 0.2666666666666667 0  0.7 0.2666666666666667 0  0.7333333333333333 0.2666666666666667 0  0.7666666666666667 0.2666666666666667 0  0.8 0.2666666666666667 0  0.8333333333333334 0.2666666666666667 0  0.8666666666666667 0.2666666666666667 0  0.9 0.2666666666666667 0  0.9333333333333333 0.2666666666666667 0  0.9666666666666667 0.2666666666666667 0  1 0.2666666666666667 0  0 0.3 0  0.03333333333333333 0.3 0  0.06666666666666667 0.3 0  0.1 0.3 0  0.1333333333333333 0.3 0  0.1666666666666667 0.3 0  0.2 0.3 0  0.2333333333333333 0.3 0  0.2666666666666667 0.3 0  0.3 0.3 0  0.3333333333333333 0.3 0  0.3666666666666666 0.3 0  0.4 0.3 0  0.4333333333333333 0.3 0  0.4666666666666667 0.3 0  0.5 0.3 0  0.5333333333333333 0.3 0  0.5666666666666667 0.3 0  0.6 0.3 0  0.6333333333333333 0.3 0  0.6666666666666666 0.3 0  0.7 0.3 0  0.7333333333333333 0.3 0  0.7666666666666667 0.3 0  0.8 0.3 0  0.8333333333333334 0.3 0  0.8666666666666667 0.3 0  0.9 0.3 0  0.9333333333333333 0.3 0  0.9666666666666667 0.3 0  1 0.3 0  0 0.3333333333333333 0  0.03333333333333333 0.3333333333333333 0  0.06666666666666667 0.3333333333333333 0  0.1 0.3333333333333333 0  0.1333333333333333 0.3333333333333333 0  0.1666666666666667 0.3333333333333333 0  0.2 0.3333333333333333 0  0.2333333333333333 0.3333333333333333 0  0.2666666666666667 0.3333333333333333 0  0.3 0.3333333333333333 0  0.3333333333333333 0.3333333333333333 0  0.3666666666666666 0.3333333333333333 0  0.4 0.3333333333333333 0  0.4333333333333333 0.3333333333333333 0  0.4666666666666667 0.3333333333333333 0  0.5 0.3333333333333333 0  0.5333333333333333 0.33333333333333
[...]
<PointData  Vectors="u_f"> 
<DataArray  type="Float64"  Name="u_f"  NumberOfComponents="3" format="ascii">2.7098070140298114e-06 4.1146106808179206e-09 0.0000000000000000e+00  2.7098070178476126e-06 4.1146066817382074e-09 0.0000000000000000e+00  2.7098070129959162e-06 4.1146014968665781e-09 0.0000000000000000e+00  2.7098070139194939e-06 4.1146103173391423e-09 0.0000000000000000e+00  2.7098070109806013e-06 4.1146072295855651e-09 0.0000000000000000e+00  2.7098070189359347e-06 4.1146191915339241e-09 0.0000000000000000e+00  2.7098070205518296e-06 4.1146172313506063e-09 0.0000000000000000e+00  2.7098070156835450e-06 4.1146069742559535e-09 0.0000000000000000e+00  2.7098070153263004e-06 4.1146065634517504e-09 0.0000000000000000e+00  2.7098070073794779e-06 4.1146101345968661e-09 0.0000000000000000e+00  2.7098070180767045e-06 4.1146124688841434e-09 0.0000000000000000e+00  2.7098070132907108e-06 4.1146007410150336e-09 0.0000000000000000e+00  2.7098070087269244e-06 4.1146138831174572e-09 0.0000000000000000e+00  2.7098070185592286e-06 4.1146103190738657e-09 0.0000000000000000e+00  2.7098070101909768e-06 4.1146132705974399e-09 0.0000000000000000e+00  2.7098070174295984e-06 4.1146101384999939e-09 0.0000000000000000e+00  2.7098070178383968e-06 4.1146134519302532e-09 0.0000000000000000e+00  2.7098070196441356e-06 4.1146117440949911e-09 0.0000000000000000e+00  2.7098070163023534e-06 4.1146081418874832e-09 0.0000000000000000e+00  2.7098070109966474e-06 4.1146082798522096e-09 0.0000000000000000e+00  2.7098070136049126e-06 4.1146092867507672e-09 0.0000000000000000e+00  2.7098070098837681e-06 4.1146068910434368e-09 0.0000000000000000e+00  2.7098070199566568e-06 4.1146321455814809e-09 0.0000000000000000e+00  2.7098070288446752e-06 4.1146189461247623e-09 0.0000000000000000e+00  2.7098070126134097e-06 4.1146042981739413e-09 0.0000000000000000e+00  2.7098070153243488e-06 4.1146095593734035e-09 0.0000000000000000e+00  2.7098070140007548e-06 4.1146076864683606e-09 0.0000000000000000e+00  2.7098070210831429e-06 4.1146105909375605e-09 0.0000000000000000e+00  2.7098070151427992e-06 4.1146081555484305e-09 0.0000000000000000e+00  2.7098070061917887e-06 4.1146149822816197e-09 0.0000000000000000e+00  2.7098070140299199e-06 -9.6099001436924270e-10 0.0000000000000000e+00  4.1705423035792851e-04 9.2630208465638644e-09 0.0000000000000000e+00  4.1705423034921738e-04 9.2630135499916638e-09 0.0000000000000000e+00  4.1705423035125037e-04 9.2630191040341328e-09 0.0000000000000000e+00  4.1705423035308105e-04 9.2630230203892203e-09 0.0000000000000000e+00  4.1705423035566806e-04 9.2630349604909054e-09 0.0000000000000000e+00  4.1705423035512856e-04 9.2630251262350999e-09 0.0000000000000000e+00  4.1705423035831211e-04 9.2630170686613944e-09 0.0000000000000000e+00  4.1705423035168069e-04 9.2630289046796710e-09 0.0000000000000000e+00  4.1705423035564627e-04 9.2630315091501297e-09 0.0000000000000000e+00  4.1705423035668851e-04 9.2630329755335680e-09 0.0000000000000000e+00  4.1705423035863672e-04 9.2630301602942069e-09 0.0000000000000000e+00  4.1705423034295232e-04 9.2630205572987248e-09 0.0000000000000000e+00  4.1705423035119844e-04 9.2630240896294028e-09 0.0000000000000000e+00  4.1705423035295615e-04 9.2630228187276162e-09 0.0000000000000000e+00  4.1705423035594887e-04 9.2630303502464276e-09 0.0000000000000000e+00  4.1705423035164437e-04 9.2630328240705245e-09 0.0000000000000000e+00  4.1705423035305589e-04 9.2630260922592356e-09 0.0000000000000000e+00  4.1705423035571761e-04 9.2630244984820420e-09 0.0000000000000000e+00  4.1705423035961857e-04 9.2630258955849615e-09 0.0000000000000000e+00  4.1705423035032078e-04 9.2630245267797187e-09 0.0000000000000000e+00  4.1705423035791637e-04 9.2630251106225886e-09 0.0000000000000000e+00  4.1705423035108969e-04 9.2630264319397762e-09 0.0000000000000000e+00  4.1705423036582400e-04 9.2630326836663432e-09 0.0000000000000000e+00  4.1705423035911398e-04 9.2630270135058215e-09 0.0000000000000000e+00  4.1705423035420775e-04 9.2630281872630935e-09 0.0000000000000000e+00  4.1705423035523763e-04 9.2630281377150542e-09 0.0000000000000000e+00  4.1705423035413359e-04 9.2630247930597723e-09 0.0000000000000000e+00  4.1705423035327002e-04 9.2630227016337816e-09 0.0000000000000000e+00  4.1705423035091199e-04 9.2630281460634109e-09 0.0000000000000000e+00  4.1705423035549535e-04 9.2630275077935920e-09 0.0000000000000000e+00  4.1705423035792873e-04 -2.4841633909390455e-09 0.0000000000000000e+00  7.5928618924608578e-04 1.2800958944106725e-08 0.0000000000000000e+00  7.5928618925075794e-04 1.2800960064846510e-08 0.0000000000000000e+00  7.5928618924624072e-04 1.2800964025003365e-08 0.0000000000000000e+00  7.5928618925096990e-04 1.2800957434246779e-08 0.0000000000000000e+00  7.5928618924803908e-04 1.2800960050751882e-08 0.0000000000000000e+00  7.5928618925391557e-04 1.2800962274667378e-08 0.0000000000000000e+00  7.5928618925350910e-04 1.2800960175977233e-08 0.0000000000000000e+00  7.5928618925224557e-04 1.2800959372258162e-08 0.0000000000000000e+00  7.5928618924941537e-04 1.2800958961670800e-08 0.0000000000000000e+00  7.5928618925525889e-04 1.2800961093212271e-08 0.0000000000000000e+00  7.5928618925337693e-04 1.2800961079334483e-08 0.0000000000000000e+00  7.5928618924317784e-04 1.2800947933816822e-08 0.0000000000000000e+00  7.5928618924614769e-04 1.2800960669289221e-08 0.0000000000000000e+00  7.5928618925561982e-04 1.2800965437610376e-08 0.0000000000000000e+00  7.5928618924507346e-04 1.2800961955152998e-08 0.0000000000000000e+00  7.5928618925697833e-04 1.2800962723310237e-08 0.0000000000000000e+00  7.5928618925386504e-04 1.2800957111371372e-08 0.0000000000000000e+00  7.5928618925079317e-04 1.2800958275696085e-08 0.0000000000000000e+00  7.5928618924663894e-04 1.2800958368937472e-08 0.0000000000000000e+00  7.5928618925117893e-04 1.2800957420585832e-08 0.0000000000000000e+00  7.5928618924863377e-04 1.2800953357971871e-08 0.0000000000000000e+00  7.5928618924925003e-04 1.2800957518922969e-08 0.0000000000000000e+00  7.5928618926285373e-04 1.2800978596138463e-08 0.0000000000000000e+00  7.5928618925696900e-04 1.2800962748572148e-08 0.0000000000000000e+00  7.5928618925605968e-04 1.2800961736035739e-08 0.0000000000000000e+00  7.5928618925345391e-04 1.2800968014867360e-08 0.0000000000000000e+00  7.5928618925508802e-04 1.2800954351426322e-08 0.0000000000000000e+00  7.5928618924655654e-04 1.2800955321353585e-08 0.0000000000000000e+00  7.5928618924739788e-04 1.2800955741156667e-08 0.0000000000000000e+00  7.5928618925310133e-04 1.2800955156012754e-08 0.0000000000000000e+00  7.5928618924608622e-04 -3.5712854435913812e-09 0.0000000000000000e+00  9.7023068605158564e-04 1.4159446642307907e-08 0.0000000000000000e+00  9.7023068604895407e-04 1.4159451796821876e-08 0.0000000000000000e+00  9.7023068605688219e-04 1.4159448702942556e-08 0.0000000000000000e+00  9.7023068605352116e-04 1.4159456700451462e-08 0.0000000000000000e+00  9.7023068605471921e-04 1.4159450010056696e-08 0.0000000000000000e+00  9.7023068605138507e-04 1.4159458290108687e-08 0.0000000000000000e+00  9.7023068606005847e-04 1.4159459823604240e-08 0.0000000000000000e+00  9.7023068605323060e-04 1.4159457463512951e-08 0.0000000000000000e+00  9.7023068605734341e-04 1.4159462165264092e-08 0.0000000000000000e+00  9.7023068605700991e-04 1.4159451711386745e-08 0.0000000000000000e+00  9.7023068604965967e-04 1.4159441342510848e-08 0.0000000000000000e+00  9.7023068604668939e-04 1.4159452247849980e-08 0.0000000000000000e+00  9.7023068605368249e-04 1.4159447963299834e-08 0.0000000000000000e+00  9.7023068605723932e-04 1.4159452070040823e-08 0.0000000000000000e+00  9.7023068605364324e-04 1.4159451049372898e-08 0.0000000000000000e+00  9.7023068605067643e-04 1.4159454899374813e-08 0.0000000000000000e+00  9.7023068606102102e-04 1.4159446939379303e-08 0.0000000000000000e+00  9.7023068605042403e-04 1.4159447767059241e-08 0.0000000000000000e+00  9.7023068605492390e-04 1.4159448445336120e-08 0.0000000000000000e+00  9.7023068605070549e-04 1.4159452298590641e-08 0.0000000000000000e+00  9.7023068605566398e-04 1.4159459207343725e-08 0.0000000000000000e+00  9.7023068605821164e-04 1.4159460379799954e-08 0.0000000000000000e+00  9.7023068606070899e-04 1.4159439060698956e-08 0.0000000000000000e+00  9.7023068604799997e-04 1.4159440286497932e-08 0.0000000000000000e+00  9.7023068605108995e-04 1.4159452975566478e-08 0.0000000000000000e+00  9.7023068605719552e-04 1.4159451228699937e-08 0.0000000000000000e+00  9.7023068605242829e-04 1.4159448296149901e-08 0.0000000000000000e+00  9.7023068605422654e-04 1.4159447214116133e-08 0.0000000000000000e+00  9.7023068604848331e-04 1.4159447101792788e-08 0.0000000000000000e+00  9.7023068605236323e-04 1.4159450806511611e-08 0.0000000000000000e+00  9.7023068605158608e-04 -4.0491094208448527e-09 0.0000000000000000e+00  1.0134135037365216e-03 1.3116650487868080e-08 0.0000000000000000e+00  1.0134135037337174e-03 1.3116652517819807e-08 0.0000000000000000e+00  1.0134135037368716e-03 1.3116656214623955e-08 0.0000000000000000e+00  1.0134135037428403e-03 1.3116652380993493e-08 0.0000000000000000e+00  1.0134135037338815e-03 1.3116655791893528e-08 0.0000000000000000e+00  1.0134135037412693e-03 1.3116653641812200e-08 0.0000000000000000e+00  1.0134135037400179e-03 1.3116642698959673e-08 0.0000000000000000e+00  1.0134135037412032e-03 1.3116645928689524e-08 0.0000000000000000e+00  1.0134135037348476e-03 1.3116645555940817e-08 0.0000000000000000e+00  1.0134135037411899e-03 1.3116644692482207e-08 0.0000000000000000e+00  1.0134135037330721e-03 1.3116643508316594e-08 0.0000000000000000e+00  1.0134135037332698e-03 1.3116647862797780e-08 0.0000000000000000e+00  1.0134135037411758e-03 1.3116646268370065e-08 0.0000000000000000e+00  1.0134135037358932e-03 1.3116646372019793e-08 0.0000000000000000e+00  1.0134135037353877e-03 1.3116651288768225e-08 0.0000000000000000e+00  1.0134135037435208e-03 1.3116647578845231e-08 0.0000000000000000e+00  1.0134135037368980e-03 1.3116654489441458e-08 0.0000000000000000e+00  1.0134135037383487e-03 1.3116653567435931e-08 0.0000000000000000e+00  1.0134135037405372e-03 1.3116653926848951e-08 0.0000000000000000e+00  1.0134135037382255e-03 1.3116651085046636e-08 0.0000000000000000e+00  1.0134135037386536e-03 1.3116645617631921e-08 0.0000000000000000e+00  1.0134135037364015e-03 1.3116645433968073e-08 0.0000000000000000e+00  1.0134135037397191e-03 1.3116652683160639e-08 0.0000000000000000e+00  1.0134135037349183e-03 1.3116648352098220e-08 0.0000000000000000e+00  1.0134135037362371e-03 1.3116651971598753e-08 0.0000000000000000e+00  1.0134135037402161e-03 1.3116652056600203e-08 0.0000000000000000e+00  1.0134135037411843e-03 1.3116649492895746e-08 0.0000000000000000e+00  1.0134135037353133e-03 1.3116652123061796e-08 0.0000000000000000e+00  1.0134135037375741e-03 1.3116646329085387e-08 0.0000000000000000e+00  1.0134135037344913e-03 1.3116649234421948e-08 0.0000000000000000e+00  1.0134135037365220e-03 -3.8418400180346095e-09 0.0000000000000000e+00  8.8136792749282514e-04 9.8275596345683003e-09 0.0000000000000000e+00  8.8136792749538896e-04 9.8275586734230744e-09 0.0000000000000000e+00  8.8136792749499561e-04 9.8275570510229435e-09 0.0000000000000000e+00  8.8136792749025580e-04 9.8275641298873478e-09 0.0000000000000000e+00  8.8136792749877524e-04 9.8275650382319280e-09 0.0000000000000000e+00  8.8136792749449926e-04 9.8275538614085722e-09 0.0000000000000000e+00  8.8136792749167014e-04 9.8275580284312020e-09 0.0000000000000000e+00  8.8136792749193686e-04 9.8275537855144202e-09 0.0000000000000000e+00  8.8136792748672260e-04 9.8275576885338209e-09 0.0000000000000000e+00  8.8136792749189793e-04 9.8275536878278044e-09 0.0000000000000000e+00  8.8136792749145569e-04 9.8275496683650904e-09 0.0000000000000000e+00  8.8136792748993325e-04 9.8275529806027273e-09 0.0000000000000000e+00  8.8136792749207628e-04 9.8275541799471705e-09 0.0000000000000000e+00  8.8136792749209851e-04 9.8275535277995638e-09 0.0000000000000000e+00  8.8136792748697598e-04 9.8275519682831589e-09 0.0000000000000000e+00  8.8136792749504223e-04 9.8275545673326067e-09 0.0000000000000000e+00  8.8136792749064254e-04 9.8275554667867290e-09 0.0000000000000000e+00  8.8136792749315051e-04 9.8275537768408028e-09 0.0000000000000000e+00  8.8136792749063939e-04 9.8275609211910184e-09 0.0000000000000000e+00  8.8136792749589886e-04 9.8275578030255703e-09 0.0000000000000000e+00  8.8136792748934561e-04 9.8275615051423085e-09 0.0000000000000000e+00  8.8136792749745816e-04 9.8275584604857677e-09 0.0000000000000000e+00  8.8136792749027131e-04 9.8275544912216142e-09 0.0000000000000000e+00  8.8136792749735689e-04 9.8275665909178592e-09 0.0000000000000000e+00  8.8136792749517710e-04 9.8275595683235475e-09 0.0000000000000000e+00  8.8136792749157246e-04 9.8275551073737089e-09 0.0000000000000000e+00  8.8136792749395705e-04 9.8275540004032907e-09 0.0000000000000000e+00  8.8136792748656355e-04 9.8275525756532159e-09 0.0000000000000000e+00  8.8136792749032660e-04 9.8275537083192255e-09 0.0000000000000000e+00  8.8136792749751367e-04 9.8275626962468152e-09 0.0000000000000000e+00  8.8136792749282558e-04 -2.9797684810132373e-09 0.0000000000000000e+00  5.9692581636446810e-04 4.8139725749522105e-09 0.0000000000000000e+00  5.9692581636645371e-04 4.8139642817271629e-09 0.0000000000000000e+00  5.9692581636440413e-04 4.8139667011243108e-09 0.0000000000000000e+00  5.9692581636817130e-04 4.8139726411427532e-09 0.0000000000000000e+00  5.9692581636715649e-04 4.8139706681658498e-09 0.0000000000000000e+00  5.9692581636374190e-04 4.8139762404229153e-09 0.0000000000000000e+00  5.9692581636585263e-04 4.8139713286618133e-09 0.0000000000000000e+00  5.9692581636612498e-04 4.8139710345177639e-09 0.0000000000000000e+00  5.9692581636337143e-04 4.8139763947048844e-09 0.0000000000000000e+00  5.9692581636938387e-04 4.8139739613215285e-09 0.0000000000000000e+00  5.9692581636435079e-04 4.8139667603759595e-09 0.0000000000000000e+00  5.9692581635945150e-04 4.8139747855320200e-09 0.0000000000000000e+00  5.9692581636836657e-04 4.8139764278814709e-09 0.0000000000000000e+00  5.9692581636856747e-04 4.8139869912090273e-09 0.0000000000000000e+00  5.9692581636586607e-04 4.8139782955823433e-09 0.0000000000000000e+00  5.9692581636912345e-04 4.8139711961180977e-09 0.0000000000000000e+00  5.9692581636708038e-04 4.8139763041197929e-09 0.0000000000000000e+00  5.9692581636677094e-04 4.8139770338962752e-09 0.0000000000000000e+00  5.9692581636648016e-04 4.8139762617816981e-09 0.0000000000000000e+00  5.9692581636360659e-04 4.8139755200789919e-09 0.0000000000000000e+00  5.9692581636841611e-04 4.8139775505186104e-09 0.0000000000000000e+00  5.9692581636913234e-04 4.8139688011154987e-09 0.0000000000000000e+00  5.9692581636602404e-04 4.8139722979385555e-09 0.0000000000000000e+00  5.9692581636436575e-04 4.8139743844856364e-09 0.0000000000000000e+00  5.9692581636801171e-04 4.8139758677826286e-09 0.0000000000000000e+00  5.9692581636562017e-04 4.8139749335256166e-09 0.0000000000000000e+00  5.9692581636077682e-04 4.8139746338521361e-09 0.0000000000000000e+00  5.9692581637079193e-04 4.8139763897175544e-09 0.0000000000000000e+00  5.9692581636146182e-04 4.8139762050237143e-09 0.0000000000000000e+00  5.9692581636736704e-04 4.8139670179823957e-09 0.0000000000000000e+00  5.9692581636446832e-04 -1.5976998169709804e-09 0.0000000000000000e+00  2.0926978108155869e-04 -1.0946786844774192e-09 0.0000000000000000e+00  2.0926978108279929e-04 -1.0946777532561732e-09 0.0000000000000000e+00  2.0926978108118242e-04 -1.0946781382699172e-09 0.0000000000000000e+00  2.0926978109060446e-04 -1.0946783348493236e-09 0.0000000000000000e+00  2.0926978108063132e-04 -1.0946854049859005e-09 0.0000000000000000e+00  2.0926978108156693e-04 -1.0946824817600030e-09 0.0000000000000000e+00  2.0926978107977789e-04 -1.0946832065627079e-09 0.0000000000000000e+00  2.0926978107801695e-04 -1.0946815194221547e-09 0.0000000000000000e+00  2.0926978108339359e-04 -1.0946798882535387e-09 0.0000000000000000e+00  2.0926978108500775e-04 -1.0946893060943949e-09 0.0000000000000000e+00  2.0926978107822274e-04 -1.0946765544267260e-09 0.0000000000000000e+00  2.0926978108409117e-04 -1.0946796882995531e-09 0.0000000000000000e+00  2.0926978108382630e-04 -1.0946905164570427e-09 0.0000000000000000e+00  2.0926978107560962e-04 -1.0946861562431383e-09 0.0000000000000000e+00  2.0926978108500423e-04 -1.0946875067524694e-09 0.0000000000000000e+00  2.0926978108186205e-04 -1.0946873214081080e-09 0.0000000000000000e+00  2.0926978108423011e-04 -1.0946882280992798e-09 0.0000000000000000e+00  2.0926978108384825e-04 -1.0946893035465198e-09 0.0000000000000000e+00  2.0926978108158867e-04 -1.0946909364363067e-09 0.0000000000000000e+00  2.0926978108111362e-04 -1.0946817405858454e-09 0.0000000000000000e+00  2.0926978108400758e-04 -1.0946830081537103e-09 0.0000000000000000e+00  2.0926978108085434e-04 -1.0946747697892925e-09 0.0000000000000000e+00  2.0926978108548735e-04 -1.0946825317552757e-09 0.0000000000000000e+00  2.0926978108087196e-04 -1.0946866301750130e-09 0.0000000000000000e+00  2.0926978108029321e-04 -1.0946811240813850e-09 0.0000000000000000e+00  2.0926978108464335e-04 -1.0946855447937706e-09 0.0000000000000000e+00  2.0926978108312615e-04 -1.0946840505192314e-09 0.0000000000000000e+00  2.0926978108066119e-04 -1.0946778728301203e-09 0.0000000000000000e+00  2.0926978108329184e-04 -1.0946899220974117e-09 0.0000000000000000e+00  2.0926978108065677e-04 -1.0946798907065462e-09 0.0000000000000000e+00  2.0926978108155869e-04 7.8883995551726524e-11 0.0000000000000000e+00  -2.1457092663158291e-04 -6.8799946168754053e-09 0.0000000000000000e+00  -2.1457092664166469e-04 -6.8799955375798902e-09 0.0000000000000000e+00  -2.1457092663736398e-04 -6.8799982133908519e-09 0.0000000000000000e+00  -2.1457092664069227e-04 -6.8799950987490609e-09 0.0000000000000000e+00  -2.1457092664005432e-04 -6.8799964777458041e-09 0.0000000000000000e+00  -2.1457092663946278e-04 -6.8800045454567998e-09 0.0000000000000000e+00  -2.1457092663494833e-04 -6.8799962594416966e-09 0.0000000000000000e+00  -2.1457092664678993e-04 -6.8800044170872626e-09 0.0000000000000000e+00  -2.1457092664529085e-04 -6.8800012868329603e-09 0.0000000000000000e+00  -2.1457092663740740e-04 -6.8799976099781328e-09 0.0000000000000000e+00  -2.1457092664236665e-04 -6.8800007504239355e-09 0.0000000000000000e+00  -2.1457092664060683e-04 -6.8799978772881784e-09 0.0000000000000000e+00  -2.1457092663831033e-04 -6.8799910471397524e-09 0.0000000000000000e+00  -2.1457092663818022e-04 -6.8800029457164943e-09 0.0000000000000000e+00  -2.1457092664378165e-04 -6.8799963167959916e-09 0.0000000000000000e+00  -2.1457092664192246e-04 -6.8799987809706892e-09 0.0000000000000000e+00  -2.1457092663931587e-04 -6.8799989472873024e-09 0.0000000000000000e+00  -2.1457092664117062e-04 -6.8800014081009733e-09 0.0000000000000000e+00  -2.1457092664245621e-04 -6.8800003886798806e-09 0.0000000000000000e+00  -2.1457092663924296e-04 -6.8800010537837034e-09 0.0000000000000000e+00  -2.1457092664332216e-04 -6.8800012874292715e-09 0.0000000000000000e+00  -2.1457092664127399e-04 -6.8799964620790827e-09 0.0000000000000000e+00  -2.1457092663962221e-04 -6.8799985195695454e-09 0.0000000000000000e+00  -2.1457092663651836e-04 -6.8799994692764384e-09 0.0000000000000000e+00  -2.1457092664076252e-04 -6.8800067970194514e-09 0.0000000000000000e+00  -2.1457092664512204e-04 -6.8800030681229196e-09 0.0000000000000000e+00  -2.1457092664229412e-04 -6.8800039840569149e-09 0.0000000000000000e+00  -2.1457092664162663e-04 -6.8800036984780627e-09 0.0000000000000000e+00  -2.1457092664255541e-04 -6.8800000376152172e-09 0.0000000000000000e+00  -2.1457092664081191e-04 -6.8799908651022076e-09 0.0000000000000000e+00  -2.1457092663158307e-04 1.7638942928678952e-09 0.0000000000000000e+00  -6.0131038162343964e-04 -1.1508512207016736e-08 0.0000000000000000e+00  -6.0131038162553323e-04 -1.1508516729115577e-08 0.0000000000000000e+00  -6.0131038162357191e-04 -1.1508507728611242e-08 0.0000000000000000e+00  -6.0131038161868270e-04 -1.1508505598912915e-08 0.