<?xml version="1.0"?>
<VTKFile type="UnstructuredGrid"  version="0.1"  >
<UnstructuredGrid>
<Piece  NumberOfPoints="961" NumberOfCells="1800">
<Points>
<DataArray  type="Float64"  NumberOfComponents="3"  format="ascii">0 0 0  0.03333333333333333 0 0  0.06666666666666667 0 0  0.1 0 0  0.1333333333333333 0 0  0.1666666666666667 0 0  0.2 0 0  0.2333333333333333 0 0  0.2666666666666667 0 0  0.3 0 0  0.3333333333333333 0 0  0.3666666666666666 0 0  0.4 0 0  0.4333333333333333 0 0  0.4666666666666667 0 0  0.5 0 0  0.5333333333333333 0 0  0.5666666666666667 0 0  0.6 0 0  0.6333333333333333 0 0  0.6666666666666666 0 0  0.7 0 0  0.7333333333333333 0 0  0.7666666666666667 0 0  0.8 0 0  0.8333333333333334 0 0  0.8666666666666667 0 0  0.9 0 0  0.9333333333333333 0 0  0.9666666666666667 0 0  1 0 0  0 0.03333333333333333 0  0.03333333333333333 0.03333333333333333 0  0.06666666666666667 0.03333333333333333 0  0.1 0.03333333333333333 0  0.1333333333333333 0.03333333333333333 0  0.1666666666666667 0.03333333333333333 0  0.2 0.03333333333333333 0  0.2333333333333333 0.03333333333333333 0  0.2666666666666667 0.03333333333333333 0  0.3 0.03333333333333333 0  0.3333333333333333 0.03333333333333333 0  0.3666666666666666 0.03333333333333333 0  0.4 0.03333333333333333 0  0.4333333333333333 0.03333333333333333 0  0.4666666666666667 0.03333333333333333 0  0.5 0.03333333333333333 0  0.5333333333333333 0.03333333333333333 0  0.5666666666666667 0.03333333333333333 0  0.6 0.03333333333333333 0  0.6333333333333333 0.03333333333333333 0  0.6666666666666666 0.03333333333333333 0  0.7 0.03333333333333333 0  0.7333333333333333 0.03333333333333333 0  0.7666666666666667 0.03333333333333333 0  0.8 0.03333333333333333 0  0.8333333333333334 0.03333333333333333 0  0.8666666666666667 0.03333333333333333 0  0.9 0.03333333333333333 0  0.9333333333333333 0.03333333333333333 0  0.9666666666666667 0.03333333333333333 0  1 0.03333333333333333 0  0 0.06666666666666667 0  0.03333333333333333 0.06666666666666667 0  0.06666666666666667 0.06666666666666667 0  0.1 0.06666666666666667 0  0.1333333333333333 0.06666666666666667 0  0.1666666666666667 0.06666666666666667 0  0.2 0.06666666666666667 0  0.2333333333333333 0.06666666666666667 0  0.2666666666666667 0.06666666666666667 0  0.3 0.06666666666666667 0  0.3333333333333333 0.06666666666666667 0  0.3666666666666666 0.06666666666666667 0  0.4 0.06666666666666667 0  0.4333333333333333 0.06666666666666667 0  0.4666666666666667 0.06666666666666667 0  0.5 0.06666666666666667 0  0.5333333333333333 0.06666666666666667 0  0.5666666666666667 0.06666666666666667 0  0.6 0.06666666666666667 0  0.6333333333333333 0.06666666666666667 0  0.6666666666666666 0.06666666666666667 0  0.7 0.06666666666666667 0  0.7333333333333333 0.06666666666666667 0  0.7666666666666667 0.06666666666666667 0  0.8 0.06666666666666667 0  0.8333333333333334 0.06666666666666667 0  0.8666666666666667 0.06666666666666667 0  0.9 0.06666666666666667 0  0.9333333333333333 0.06666666666666667 0  0.9666666666666667 0.06666666666666667 0  1 0.06666666666666667 0  0 0.1 0  0.03333333333333333 0.1 0  0.06666666666666667 0.1 0  0.1 0.1 0  0.1333333333333333 0.1 0  0.1666666666666667 0.1 0  0.2 0.1 0  0.2333333333333333 0.1 0  0.2666666666666667 0.1 0  0.3 0.1 0  0.3333333333333333 0.1 0  0.3666666666666666 0.1 0  0.4 0.1 0  0.4333333333333333 0.1 0  0.4666666666666667 0.1 0  0.5 0.1 0  0.5333333333333333 0.1 0  0.5666666666666667 0.1 0  0.6 0.1 0  0.6333333333333333 0.1 0  0.6666666666666666 0.1 0  0.7 0.1 0  0.7333333333333333 0.1 0  0.7666666666666667 0.1 0  0.8 0.1 0  0.8333333333333334 0.1 0  0.8666666666666667 0.1 0  0.9 0.1 0  0.9333333333333333 0.1 0  0.9666666666666667 0.1 0  1 0.1 0  0 0.1333333333333333 0  0.03333333333333333 0.1333333333333333 0  0.06666666666666667 0.1333333333333333 0  0.1 0.1333333333333333 0  0.1333333333333333 0.1333333333333333 0  0.1666666666666667 0.1333333333333333 0  0.2 0.1333333333333333 0  0.2333333333333333 0.1333333333333333 0  0.2666666666666667 0.1333333333333333 0  0.3 0.1333333333333333 0  0.3333333333333333 0.1333333333333333 0  0.3666666666666666 0.1333333333333333 0  0.4 0.1333333333333333 0  0.4333333333333333 0.1333333333333333 0  0.4666666666666667 0.1333333333333333 0  0.5 0.1333333333333333 0  0.5333333333333333 0.1333333333333333 0  0.5666666666666667 0.1333333333333333 0  0.6 0.1333333333333333 0  0.6333333333333333 0.1333333333333333 0  0.6666666666666666 0.1333333333333333 0  0.7 0.1333333333333333 0  0.7333333333333333 0.1333333333333333 0  0.7666666666666667 0.1333333333333333 0  0.8 0.1333333333333333 0  0.8333333333333334 0.1333333333333333 0  0.8666666666666667 0.1333333333333333 0  0.9 0.1333333333333333 0  0.9333333333333333 0.1333333333333333 0  0.9666666666666667 0.1333333333333333 0  1 0.1333333333333333 0  0 0.1666666666666667 0  0.03333333333333333 0.1666666666666667 0  0.06666666666666667 0.1666666666666667 0  0.1 0.1666666666666667 0  0.1333333333333333 0.1666666666666667 0  0.1666666666666667 0.1666666666666667 0  0.2 0.1666666666666667 0  0.2333333333333333 0.1666666666666667 0  0.2666666666666667 0.1666666666666667 0  0.3 0.1666666666666667 0  0.3333333333333333 0.1666666666666667 0  0.3666666666666666 0.1666666666666667 0  0.4 0.1666666666666667 0  0.4333333333333333 0.1666666666666667 0  0.4666666666666667 0.1666666666666667 0  0.5 0.1666666666666667 0  0.5333333333333333 0.1666666666666667 0  0.5666666666666667 0.1666666666666667 0  0.6 0.1666666666666667 0  0.6333333333333333 0.1666666666666667 0  0.6666666666666666 0.1666666666666667 0  0.7 0.1666666666666667 0  0.7333333333333333 0.1666666666666667 0  0.7666666666666667 0.1666666666666667 0  0.8 0.1666666666666667 0  0.8333333333333334 0.1666666666666667 0  0.8666666666666667 0.1666666666666667 0  0.9 0.1666666666666667 0  0.9333333333333333 0.1666666666666667 0  0.9666666666666667 0.1666666666666667 0  1 0.1666666666666667 0  0 0.2 0  0.03333333333333333 0.2 0  0.06666666666666667 0.2 0  0.1 0.2 0  0.1333333333333333 0.2 0  0.1666666666666667 0.2 0  0.2 0.2 0  0.2333333333333333 0.2 0  0.2666666666666667 0.2 0  0.3 0.2 0  0.3333333333333333 0.2 0  0.3666666666666666 0.2 0  0.4 0.2 0  0.4333333333333333 0.2 0  0.4666666666666667 0.2 0  0.5 0.2 0  0.5333333333333333 0.2 0  0.5666666666666667 0.2 0  0.6 0.2 0  0.6333333333333333 0.2 0  0.6666666666666666 0.2 0  0.7 0.2 0  0.7333333333333333 0.2 0  0.7666666666666667 0.2 0  0.8 0.2 0  0.8333333333333334 0.2 0  0.8666666666666667 0.2 0  0.9 0.2 0  0.9333333333333333 0.2 0  0.9666666666666667 0.2 0  1 0.2 0  0 0.2333333333333333 0  0.03333333333333333 0.2333333333333333 0  0.06666666666666667 0.2333333333333333 0  0.1 0.2333333333333333 0  0.1333333333333333 0.2333333333333333 0  0.1666666666666667 0.2333333333333333 0  0.2 0.2333333333333333 0  0.2333333333333333 0.2333333333333333 0  0.2666666666666667 0.2333333333333333 0  0.3 0.2333333333333333 0  0.3333333333333333 0.2333333333333333 0  0.3666666666666666 0.2333333333333333 0  0.4 0.2333333333333333 0  0.4333333333333333 0.2333333333333333 0  0.4666666666666667 0.2333333333333333 0  0.5 0.2333333333333333 0  0.5333333333333333 0.2333333333333333 0  0.5666666666666667 0.2333333333333333 0  0.6 0.2333333333333333 0  0.6333333333333333 0.2333333333333333 0  0.6666666666666666 0.2333333333333333 0  0.7 0.2333333333333333 0  0.7333333333333333 0.2333333333333333 0  0.7666666666666667 0.2333333333333333 0  0.8 0.2333333333333333 0  0.8333333333333334 0.2333333333333333 0  0.8666666666666667 0.2333333333333333 0  0.9 0.2333333333333333 0  0.9333333333333333 0.2333333333333333 0  0.9666666666666667 0.2333333333333333 0  1 0.2333333333333333 0  0 0.2666666666666667 0  0.03333333333333333 0.2666666666666667 0  0.06666666666666667 0.2666666666666667 0  0.1 0.2666666666666667 0  0.1333333333333333 0.2666666666666667 0  0.1666666666666667 0.2666666666666667 0  0.2 0.2666666666666667 0  0.2333333333333333 0.2666666666666667 0  0.2666666666666667 0.2666666666666667 0  0.3 0.2666666666666667 0  0.3333333333333333 0.2666666666666667 0  0.3666666666666666 0.2666666666666667 0  0.4 0.2666666666666667 0  0.4333333333333333 0.2666666666666667 0  0.4666666666666667 0.2666666666666667 0  0.5 0.2666666666666667 0  0.5333333333333333 0.2666666666666667 0  0.5666666666666667 0.2666666666666667 0  0.6 0.2666666666666667 0  0.6333333333333333 0.2666666666666667 0  0.6666666666666666 0.2666666666666667 0  0.7 0.2666666666666667 0  0.7333333333333333 0.2666666666666667 0  0.7666666666666667 0.2666666666666667 0  0.8 0.2666666666666667 0  0.8333333333333334 0.2666666666666667 0  0.8666666666666667 0.2666666666666667 0  0.9 0.2666666666666667 0  0.9333333333333333 0.2666666666666667 0  0.9666666666666667 0.2666666666666667 0  1 0.2666666666666667 0  0 0.3 0  0.03333333333333333 0.3 0  0.06666666666666667 0.3 0  0.1 0.3 0  0.1333333333333333 0.3 0  0.1666666666666667 0.3 0  0.2 0.3 0  0.2333333333333333 0.3 0  0.2666666666666667 0.3 0  0.3 0.3 0  0.3333333333333333 0.3 0  0.3666666666666666 0.3 0  0.4 0.3 0  0.4333333333333333 0.3 0  0.4666666666666667 0.3 0  0.5 0.3 0  0.5333333333333333 0.3 0  0.5666666666666667 0.3 0  0.6 0.3 0  0.6333333333333333 0.3 0  0.6666666666666666 0.3 0  0.7 0.3 0  0.7333333333333333 0.3 0  0.7666666666666667 0.3 0  0.8 0.3 0  0.8333333333333334 0.3 0  0.8666666666666667 0.3 0  0.9 0.3 0  0.9333333333333333 0.3 0  0.9666666666666667 0.3 0  1 0.3 0  0 0.3333333333333333 0  0.03333333333333333 0.3333333333333333 0  0.06666666666666667 0.3333333333333333 0  0.1 0.3333333333333333 0  0.1333333333333333 0.3333333333333333 0  0.1666666666666667 0.3333333333333333 0  0.2 0.3333333333333333 0  0.2333333333333333 0.3333333333333333 0  0.2666666666666667 0.3333333333333333 0  0.3 0.3333333333333333 0  0.3333333333333333 0.3333333333333333 0  0.3666666666666666 0.3333333333333333 0  0.4 0.3333333333333333 0  0.4333333333333333 0.3333333333333333 0  0.4666666666666667 0.3333333333333333 0  0.5 0.3333333333333333 0  0.5333333333333333 0.33333333333333
[...]
<PointData  Vectors="u_f"> 
<DataArray  type="Float64"  Name="u_f"  NumberOfComponents="3" format="ascii">2.7096267189565069e-06 3.2014264451777664e-09 0.0000000000000000e+00  2.7096267059740532e-06 3.2014281804433435e-09 0.0000000000000000e+00  2.7096266967764409e-06 3.2014106315469797e-09 0.0000000000000000e+00  2.7096267112813855e-06 3.2013942760861572e-09 0.0000000000000000e+00  2.7096266791784844e-06 3.2014071928371593e-09 0.0000000000000000e+00  2.7096266965844287e-06 3.2014334234282092e-09 0.0000000000000000e+00  2.7096267100645854e-06 3.2014196382854770e-09 0.0000000000000000e+00  2.7096266882080454e-06 3.2014075116468081e-09 0.0000000000000000e+00  2.7096267167103652e-06 3.2014403204719093e-09 0.0000000000000000e+00  2.7096267003547418e-06 3.2014268106081087e-09 0.0000000000000000e+00  2.7096267038718394e-06 3.2014501195995644e-09 0.0000000000000000e+00  2.7096266919750516e-06 3.2013506073499953e-09 0.0000000000000000e+00  2.7096266665760436e-06 3.2014187213756998e-09 0.0000000000000000e+00  2.7096267007512345e-06 3.2014252876293170e-09 0.0000000000000000e+00  2.7096266920486689e-06 3.2014029075280726e-09 0.0000000000000000e+00  2.7096266914265537e-06 3.2014170474759657e-09 0.0000000000000000e+00  2.7096267163836951e-06 3.2014230278267289e-09 0.0000000000000000e+00  2.7096267120965971e-06 3.2014033603993200e-09 0.0000000000000000e+00  2.7096267021361944e-06 3.2014093451953121e-09 0.0000000000000000e+00  2.7096267078352489e-06 3.2014213958314088e-09 0.0000000000000000e+00  2.7096267025510643e-06 3.2014380281974661e-09 0.0000000000000000e+00  2.7096267075402917e-06 3.2013947009849886e-09 0.0000000000000000e+00  2.7096267194474878e-06 3.2015207005646820e-09 0.0000000000000000e+00  2.7096267713275376e-06 3.2014460844701290e-09 0.0000000000000000e+00  2.7096267066124857e-06 3.2014201396205616e-09 0.0000000000000000e+00  2.7096267018808648e-06 3.2014043433912197e-09 0.0000000000000000e+00  2.7096267007040717e-06 3.2014228746831720e-09 0.0000000000000000e+00  2.7096267089342504e-06 3.2014270489157462e-09 0.0000000000000000e+00  2.7096267090345933e-06 3.2014304832887579e-09 0.0000000000000000e+00  2.7096267062750820e-06 3.2014248470637642e-09 0.0000000000000000e+00  2.7096267189565611e-06 -7.8121624305280054e-10 0.0000000000000000e+00  4.1705325917817970e-04 6.7128750448966490e-09 0.0000000000000000e+00  4.1705325916202606e-04 6.7128776183589256e-09 0.0000000000000000e+00  4.1705325916291359e-04 6.7128926184044022e-09 0.0000000000000000e+00  4.1705325917503931e-04 6.7128862608597031e-09 0.0000000000000000e+00  4.1705325916769080e-04 6.7128783176693269e-09 0.0000000000000000e+00  4.1705325916544954e-04 6.7128745245880264e-09 0.0000000000000000e+00  4.1705325915754527e-04 6.7128812360163145e-09 0.0000000000000000e+00  4.1705325916963814e-04 6.7128932792256263e-09 0.0000000000000000e+00  4.1705325916828852e-04 6.7128774046626774e-09 0.0000000000000000e+00  4.1705325917369208e-04 6.7128747527041635e-09 0.0000000000000000e+00  4.1705325916692525e-04 6.7128933729006940e-09 0.0000000000000000e+00  4.1705325913224346e-04 6.7128231251651141e-09 0.0000000000000000e+00  4.1705325912463496e-04 6.7128585337986046e-09 0.0000000000000000e+00  4.1705325916514119e-04 6.7128664764468798e-09 0.0000000000000000e+00  4.1705325916148949e-04 6.7128717319000705e-09 0.0000000000000000e+00  4.1705325916283607e-04 6.7128772366113407e-09 0.0000000000000000e+00  4.1705325917350462e-04 6.7128667963949409e-09 0.0000000000000000e+00  4.1705325915015979e-04 6.7128812444730915e-09 0.0000000000000000e+00  4.1705325917963112e-04 6.7128867629537292e-09 0.0000000000000000e+00  4.1705325914899308e-04 6.7128672765880831e-09 0.0000000000000000e+00  4.1705325917987843e-04 6.7129037217188506e-09 0.0000000000000000e+00  4.1705325917834460e-04 6.7128872660235372e-09 0.0000000000000000e+00  4.1705325920838904e-04 6.7129305714435511e-09 0.0000000000000000e+00  4.1705325919774326e-04 6.7128897337761020e-09 0.0000000000000000e+00  4.1705325916948407e-04 6.7128743127349219e-09 0.0000000000000000e+00  4.1705325916139625e-04 6.7129021745623504e-09 0.0000000000000000e+00  4.1705325917413725e-04 6.7129045323768149e-09 0.0000000000000000e+00  4.1705325918362293e-04 6.7128811853840731e-09 0.0000000000000000e+00  4.1705325915331287e-04 6.7128853135922650e-09 0.0000000000000000e+00  4.1705325917756181e-04 6.7128827916295916e-09 0.0000000000000000e+00  4.1705325917817991e-04 -1.7125443649159856e-09 0.0000000000000000e+00  7.5928456373855393e-04 8.9349344960503591e-09 0.0000000000000000e+00  7.5928456373678364e-04 8.9349222917286045e-09 0.0000000000000000e+00  7.5928456373544823e-04 8.9349057603559795e-09 0.0000000000000000e+00  7.5928456371829127e-04 8.9349034421148943e-09 0.0000000000000000e+00  7.5928456373266574e-04 8.9349201409967549e-09 0.0000000000000000e+00  7.5928456371539266e-04 8.9349076221479501e-09 0.0000000000000000e+00  7.5928456373304748e-04 8.9349181597257049e-09 0.0000000000000000e+00  7.5928456373494245e-04 8.9349295176108234e-09 0.0000000000000000e+00  7.5928456373995494e-04 8.9349497225856694e-09 0.0000000000000000e+00  7.5928456373673540e-04 8.9349546952789335e-09 0.0000000000000000e+00  7.5928456374737153e-04 8.9349322190089564e-09 0.0000000000000000e+00  7.5928456368418553e-04 8.9348601245518161e-09 0.0000000000000000e+00  7.5928456370731080e-04 8.9349236998903861e-09 0.0000000000000000e+00  7.5928456372776211e-04 8.9349475071269502e-09 0.0000000000000000e+00  7.5928456373791967e-04 8.9349447862131781e-09 0.0000000000000000e+00  7.5928456373815483e-04 8.9349222893433597e-09 0.0000000000000000e+00  7.5928456371911288e-04 8.9349177452352144e-09 0.0000000000000000e+00  7.5928456373224019e-04 8.9349343176991017e-09 0.0000000000000000e+00  7.5928456373101038e-04 8.9349124440286920e-09 0.0000000000000000e+00  7.5928456372386310e-04 8.9349271666268326e-09 0.0000000000000000e+00  7.5928456373469016e-04 8.9349072529771104e-09 0.0000000000000000e+00  7.5928456372950756e-04 8.9349022780070217e-09 0.0000000000000000e+00  7.5928456376996316e-04 8.9349746543567268e-09 0.0000000000000000e+00  7.5928456376978838e-04 8.9349517820276961e-09 0.0000000000000000e+00  7.5928456372727248e-04 8.9349347140834159e-09 0.0000000000000000e+00  7.5928456373372565e-04 8.9349325193329582e-09 0.0000000000000000e+00  7.5928456374206317e-04 8.9349283370230778e-09 0.0000000000000000e+00  7.5928456372605134e-04 8.9349134687081652e-09 0.0000000000000000e+00  7.5928456372738871e-04 8.9349224444926906e-09 0.0000000000000000e+00  7.5928456373538155e-04 8.9349264161420888e-09 0.0000000000000000e+00  7.5928456373855436e-04 -2.2749445313793614e-09 0.0000000000000000e+00  9.7022872812970742e-04 9.7303528617722485e-09 0.0000000000000000e+00  9.7022872813869827e-04 9.7303571380824572e-09 0.0000000000000000e+00  9.7022872813503367e-04 9.7303541727895154e-09 0.0000000000000000e+00  9.7022872813614194e-04 9.7303790502420440e-09 0.0000000000000000e+00  9.7022872813827283e-04 9.7303746086994242e-09 0.0000000000000000e+00  9.7022872813359753e-04 9.7303663386220929e-09 0.0000000000000000e+00  9.7022872813925447e-04 9.7303480643944756e-09 0.0000000000000000e+00  9.7022872814041716e-04 9.7303688750046552e-09 0.0000000000000000e+00  9.7022872814636965e-04 9.7303524341629116e-09 0.0000000000000000e+00  9.7022872812154077e-04 9.7303564994873776e-09 0.0000000000000000e+00  9.7022872814188149e-04 9.7303795355309364e-09 0.0000000000000000e+00  9.7022872812828126e-04 9.7303808704006511e-09 0.0000000000000000e+00  9.7022872814802349e-04 9.7303573048327513e-09 0.0000000000000000e+00  9.7022872813473855e-04 9.7303586837210743e-09 0.0000000000000000e+00  9.7022872813661769e-04 9.7303497266932465e-09 0.0000000000000000e+00  9.7022872815326951e-04 9.7303722843868068e-09 0.0000000000000000e+00  9.7022872813274340e-04 9.7303727985154770e-09 0.0000000000000000e+00  9.7022872813371918e-04 9.7303711279767696e-09 0.0000000000000000e+00  9.7022872814833357e-04 9.7303620664318524e-09 0.0000000000000000e+00  9.7022872813108869e-04 9.7303460328164448e-09 0.0000000000000000e+00  9.7022872814015132e-04 9.7303776750400084e-09 0.0000000000000000e+00  9.7022872813466547e-04 9.7303753366327628e-09 0.0000000000000000e+00  9.7022872816200211e-04 9.7303394109432562e-09 0.0000000000000000e+00  9.7022872813947738e-04 9.7303652012940139e-09 0.0000000000000000e+00  9.7022872813414159e-04 9.7303751631604152e-09 0.0000000000000000e+00  9.7022872815071990e-04 9.7303744402144066e-09 0.0000000000000000e+00  9.7022872813075150e-04 9.7303676424836255e-09 0.0000000000000000e+00  9.7022872815380988e-04 9.7303782381746168e-09 0.0000000000000000e+00  9.7022872813671071e-04 9.7303660257213459e-09 0.0000000000000000e+00  9.7022872813220715e-04 9.7303536426146531e-09 0.0000000000000000e+00  9.7022872812970785e-04 -2.4480345269818545e-09 0.0000000000000000e+00  1.0134116279810440e-03 9.0923191071448292e-09 0.0000000000000000e+00  1.0134116279884664e-03 9.0923393341289793e-09 0.0000000000000000e+00  1.0134116279862239e-03 9.0923129774994269e-09 0.0000000000000000e+00  1.0134116279763789e-03 9.0923215142904926e-09 0.0000000000000000e+00  1.0134116279881791e-03 9.0923296819107186e-09 0.0000000000000000e+00  1.0134116279944252e-03 9.0923414654536100e-09 0.0000000000000000e+00  1.0134116279938541e-03 9.0923191797863748e-09 0.0000000000000000e+00  1.0134116279889283e-03 9.0923135388993118e-09 0.0000000000000000e+00  1.0134116279821080e-03 9.0923135140710820e-09 0.0000000000000000e+00  1.0134116279910100e-03 9.0923283556062010e-09 0.0000000000000000e+00  1.0134116279841184e-03 9.0923280723041733e-09 0.0000000000000000e+00  1.0134116279923566e-03 9.0923450961214250e-09 0.0000000000000000e+00  1.0134116279879391e-03 9.0923203724087645e-09 0.0000000000000000e+00  1.0134116279802918e-03 9.0923328388906044e-09 0.0000000000000000e+00  1.0134116280074686e-03 9.0923378857432971e-09 0.0000000000000000e+00  1.0134116279894296e-03 9.0923119136802552e-09 0.0000000000000000e+00  1.0134116279850746e-03 9.0923431536648128e-09 0.0000000000000000e+00  1.0134116280053893e-03 9.0923297326513802e-09 0.0000000000000000e+00  1.0134116279846255e-03 9.0923384685019648e-09 0.0000000000000000e+00  1.0134116279903816e-03 9.0923179602757712e-09 0.0000000000000000e+00  1.0134116279851327e-03 9.0923131056521236e-09 0.0000000000000000e+00  1.0134116279973062e-03 9.0923360603805195e-09 0.0000000000000000e+00  1.0134116279981952e-03 9.0923304025799026e-09 0.0000000000000000e+00  1.0134116279809076e-03 9.0923309901090599e-09 0.0000000000000000e+00  1.0134116279901018e-03 9.0923174843110174e-09 0.0000000000000000e+00  1.0134116279814239e-03 9.0923140352470663e-09 0.0000000000000000e+00  1.0134116279839132e-03 9.0923348944295032e-09 0.0000000000000000e+00  1.0134116279948108e-03 9.0923251537403452e-09 0.0000000000000000e+00  1.0134116279970997e-03 9.0923310461623122e-09 0.0000000000000000e+00  1.0134116279853468e-03 9.0923301851973670e-09 0.0000000000000000e+00  1.0134116279810444e-03 -2.2627225666917138e-09 0.0000000000000000e+00  8.8136650904434006e-04 7.0590833250398083e-09 0.0000000000000000e+00  8.8136650904432922e-04 7.0590499513453753e-09 0.0000000000000000e+00  8.8136650903317246e-04 7.0590703940857577e-09 0.0000000000000000e+00  8.8136650903416103e-04 7.0590614755471071e-09 0.0000000000000000e+00  8.8136650903293751e-04 7.0590547821165750e-09 0.0000000000000000e+00  8.8136650902456714e-04 7.0590503595474932e-09 0.0000000000000000e+00  8.8136650904709502e-04 7.0590683596888013e-09 0.0000000000000000e+00  8.8136650901614181e-04 7.0590707601124111e-09 0.0000000000000000e+00  8.8136650904760156e-04 7.0590526230363687e-09 0.0000000000000000e+00  8.8136650903309569e-04 7.0590508751940464e-09 0.0000000000000000e+00  8.8136650903296743e-04 7.0590475904951447e-09 0.0000000000000000e+00  8.8136650903505669e-04 7.0590631643004109e-09 0.0000000000000000e+00  8.8136650903058382e-04 7.0590581960523757e-09 0.0000000000000000e+00  8.8136650902758676e-04 7.0590499174098473e-09 0.0000000000000000e+00  8.8136650902540577e-04 7.0590701445024176e-09 0.0000000000000000e+00  8.8136650905746346e-04 7.0590755422029333e-09 0.0000000000000000e+00  8.8136650902768639e-04 7.0590471534532490e-09 0.0000000000000000e+00  8.8136650904374191e-04 7.0590601653972018e-09 0.0000000000000000e+00  8.8136650902105324e-04 7.0590604844779012e-09 0.0000000000000000e+00  8.8136650905125348e-04 7.0590716133795209e-09 0.0000000000000000e+00  8.8136650902824617e-04 7.0590613887025130e-09 0.0000000000000000e+00  8.8136650904891941e-04 7.0590686470023770e-09 0.0000000000000000e+00  8.8136650905014250e-04 7.0590642029660922e-09 0.0000000000000000e+00  8.8136650902806359e-04 7.0590423976004193e-09 0.0000000000000000e+00  8.8136650903058544e-04 7.0590693361212778e-09 0.0000000000000000e+00  8.8136650903068486e-04 7.0590545099818297e-09 0.0000000000000000e+00  8.8136650903281944e-04 7.0590595433904155e-09 0.0000000000000000e+00  8.8136650904997596e-04 7.0590473369002565e-09 0.0000000000000000e+00  8.8136650903173849e-04 7.0590752080518238e-09 0.0000000000000000e+00  8.8136650903347777e-04 7.0590734020962650e-09 0.0000000000000000e+00  8.8136650904434050e-04 -1.7557449916925580e-09 0.0000000000000000e+00  5.9692508203180810e-04 3.7552155508963937e-09 0.0000000000000000e+00  5.9692508204260383e-04 3.7552423171917371e-09 0.0000000000000000e+00  5.9692508204264698e-04 3.7552135110784264e-09 0.0000000000000000e+00  5.9692508203948512e-04 3.7552422518143461e-09 0.0000000000000000e+00  5.9692508204514921e-04 3.7552389866852935e-09 0.0000000000000000e+00  5.9692508203526822e-04 3.7552267741778125e-09 0.0000000000000000e+00  5.9692508204515799e-04 3.7552103313845051e-09 0.0000000000000000e+00  5.9692508203362945e-04 3.7552153224007859e-09 0.0000000000000000e+00  5.9692508202717704e-04 3.7552344300546131e-09 0.0000000000000000e+00  5.9692508204633988e-04 3.7552313800312716e-09 0.0000000000000000e+00  5.9692508202702471e-04 3.7552214106296652e-09 0.0000000000000000e+00  5.9692508204229147e-04 3.7552510556444069e-09 0.0000000000000000e+00  5.9692508204732553e-04 3.7552403653025659e-09 0.0000000000000000e+00  5.9692508204151431e-04 3.7552240630760701e-09 0.0000000000000000e+00  5.9692508204142822e-04 3.7552589956905968e-09 0.0000000000000000e+00  5.9692508206220967e-04 3.7552194094092953e-09 0.0000000000000000e+00  5.9692508203333335e-04 3.7552122936278069e-09 0.0000000000000000e+00  5.9692508204252479e-04 3.7552235126266272e-09 0.0000000000000000e+00  5.9692508204430689e-04 3.7552215622011290e-09 0.0000000000000000e+00  5.9692508202904089e-04 3.7552188575503895e-09 0.0000000000000000e+00  5.9692508203869083e-04 3.7552282302071201e-09 0.0000000000000000e+00  5.9692508205110928e-04 3.7552219537607436e-09 0.0000000000000000e+00  5.9692508203470097e-04 3.7552122690706277e-09 0.0000000000000000e+00  5.9692508204307502e-04 3.7552335144458784e-09 0.0000000000000000e+00  5.9692508203911497e-04 3.7552437191193562e-09 0.0000000000000000e+00  5.9692508204881077e-04 3.7552495640532681e-09 0.0000000000000000e+00  5.9692508204047456e-04 3.7552344356382543e-09 0.0000000000000000e+00  5.9692508203842737e-04 3.7552515702067579e-09 0.0000000000000000e+00  5.9692508204042371e-04 3.7552367453683524e-09 0.0000000000000000e+00  5.9692508205965995e-04 3.7552249484897743e-09 0.0000000000000000e+00  5.9692508203180821e-04 -9.6087094693712215e-10 0.0000000000000000e+00  2.0926977190417897e-04 -4.7941983236511436e-10 0.0000000000000000e+00  2.0926977190762361e-04 -4.7940611990458532e-10 0.0000000000000000e+00  2.0926977190438440e-04 -4.7940396688235867e-10 0.0000000000000000e+00  2.0926977189864276e-04 -4.7941315038646775e-10 0.0000000000000000e+00  2.0926977190104305e-04 -4.7941256354848936e-10 0.0000000000000000e+00  2.0926977190470600e-04 -4.7940988273664515e-10 0.0000000000000000e+00  2.0926977190169886e-04 -4.7943366930560533e-10 0.0000000000000000e+00  2.0926977189423011e-04 -4.7944049339605169e-10 0.0000000000000000e+00  2.0926977190014289e-04 -4.7942387475870436e-10 0.0000000000000000e+00  2.0926977190095366e-04 -4.7940923678254331e-10 0.0000000000000000e+00  2.0926977190866485e-04 -4.7941840863147903e-10 0.0000000000000000e+00  2.0926977189867106e-04 -4.7943191574411660e-10 0.0000000000000000e+00  2.0926977189058126e-04 -4.7942083335477011e-10 0.0000000000000000e+00  2.0926977189741127e-04 -4.7941726048848343e-10 0.0000000000000000e+00  2.0926977189483455e-04 -4.7942395177771619e-10 0.0000000000000000e+00  2.0926977191341602e-04 -4.7939870668578348e-10 0.0000000000000000e+00  2.0926977190605762e-04 -4.7942190499374992e-10 0.0000000000000000e+00  2.0926977189968804e-04 -4.7942958831441798e-10 0.0000000000000000e+00  2.0926977191128209e-04 -4.7940460596532924e-10 0.0000000000000000e+00  2.0926977191305511e-04 -4.7939057377357954e-10 0.0000000000000000e+00  2.0926977190477501e-04 -4.7938511552037249e-10 0.0000000000000000e+00  2.0926977191672259e-04 -4.7940986137786235e-10 0.0000000000000000e+00  2.0926977188956116e-04 -4.7943688471043574e-10 0.0000000000000000e+00  2.0926977190081089e-04 -4.7942959907512454e-10 0.0000000000000000e+00  2.0926977190187734e-04 -4.7942176918387529e-10 0.0000000000000000e+00  2.0926977189846300e-04 -4.7941489736142828e-10 0.0000000000000000e+00  2.0926977190509615e-04 -4.7944101268823473e-10 0.0000000000000000e+00  2.0926977189479224e-04 -4.7942039056660286e-10 0.0000000000000000e+00  2.0926977191549663e-04 -4.7941565237271614e-10 0.0000000000000000e+00  2.0926977190653169e-04 -4.7941784728580423e-10 0.0000000000000000e+00  2.0926977190417897e-04 6.0508848060303315e-11 0.0000000000000000e+00  -2.1457031607878503e-04 -4.9959715971419766e-09 0.0000000000000000e+00  -2.1457031608474792e-04 -4.9959886525095115e-09 0.0000000000000000e+00  -2.1457031606419855e-04 -4.9959935941945935e-09 0.0000000000000000e+00  -2.1457031608600939e-04 -4.9959911782668925e-09 0.0000000000000000e+00  -2.1457031608535128e-04 -4.9959976698731902e-09 0.0000000000000000e+00  -2.1457031608125842e-04 -4.9959754492580853e-09 0.0000000000000000e+00  -2.1457031608650650e-04 -4.9960030017084239e-09 0.0000000000000000e+00  -2.1457031608996982e-04 -4.9959797169488868e-09 0.0000000000000000e+00  -2.1457031607509456e-04 -4.9959829692843537e-09 0.0000000000000000e+00  -2.1457031608575623e-04 -4.9959856792476838e-09 0.0000000000000000e+00  -2.1457031606842341e-04 -4.9959837245937971e-09 0.0000000000000000e+00  -2.1457031609707828e-04 -4.9959757644356569e-09 0.0000000000000000e+00  -2.1457031606889504e-04 -4.9959908675887600e-09 0.0000000000000000e+00  -2.1457031609201305e-04 -4.9959606583552078e-09 0.0000000000000000e+00  -2.1457031607972243e-04 -4.9959714187365091e-09 0.0000000000000000e+00  -2.1457031606893380e-04 -4.9959741923425068e-09 0.0000000000000000e+00  -2.1457031607627223e-04 -4.9959723531561515e-09 0.0000000000000000e+00  -2.1457031608430893e-04 -4.9959900939562998e-09 0.0000000000000000e+00  -2.1457031607615470e-04 -4.9959978401471414e-09 0.0000000000000000e+00  -2.1457031608045199e-04 -4.9959848484235590e-09 0.0000000000000000e+00  -2.1457031607874296e-04 -4.9960077706258897e-09 0.0000000000000000e+00  -2.1457031608842689e-04 -4.9959792729138870e-09 0.0000000000000000e+00  -2.1457031608217690e-04 -4.9959810951324783e-09 0.0000000000000000e+00  -2.1457031607924034e-04 -4.9959780605048076e-09 0.0000000000000000e+00  -2.1457031607654626e-04 -4.9960094755880161e-09 0.0000000000000000e+00  -2.1457031610228267e-04 -4.9960126291526651e-09 0.0000000000000000e+00  -2.1457031608851233e-04 -4.9959781450183670e-09 0.0000000000000000e+00  -2.1457031608367630e-04 -4.9959811717313618e-09 0.0000000000000000e+00  -2.1457031608069696e-04 -4.9959899043835500e-09 0.0000000000000000e+00  -2.1457031607636861e-04 -4.9959877787509807e-09 0.0000000000000000e+00  -2.1457031607878519e-04 1.1804119937826672e-09 0.0000000000000000e+00  -6.0130932419200664e-04 -8.8934192682714117e-09 0.0000000000000000e+00  -6.0130932419287389e-04 -8.8934234398476905e-09 0.0000000000000000e+00  -6.0130932417494032e-04 -8.8934056720509080e-09 0.0000000000000000e+00  -6.0130932418409543e-04 -8.8933984769600308e-09 0.