<?xml version="1.0"?>
<VTKFile type="UnstructuredGrid"  version="0.1"  >
<UnstructuredGrid>
<Piece  NumberOfPoints="961" NumberOfCells="1800">
<Points>
<DataArray  type="Float64"  NumberOfComponents="3"  format="ascii">0 0 0  0.03333333333333333 0 0  0.06666666666666667 0 0  0.1 0 0  0.1333333333333333 0 0  0.1666666666666667 0 0  0.2 0 0  0.2333333333333333 0 0  0.2666666666666667 0 0  0.3 0 0  0.3333333333333333 0 0  0.3666666666666666 0 0  0.4 0 0  0.4333333333333333 0 0  0.4666666666666667 0 0  0.5 0 0  0.5333333333333333 0 0  0.5666666666666667 0 0  0.6 0 0  0.6333333333333333 0 0  0.6666666666666666 0 0  0.7 0 0  0.7333333333333333 0 0  0.7666666666666667 0 0  0.8 0 0  0.8333333333333334 0 0  0.8666666666666667 0 0  0.9 0 0  0.9333333333333333 0 0  0.9666666666666667 0 0  1 0 0  0 0.03333333333333333 0  0.03333333333333333 0.03333333333333333 0  0.06666666666666667 0.03333333333333333 0  0.1 0.03333333333333333 0  0.1333333333333333 0.03333333333333333 0  0.1666666666666667 0.03333333333333333 0  0.2 0.03333333333333333 0  0.2333333333333333 0.03333333333333333 0  0.2666666666666667 0.03333333333333333 0  0.3 0.03333333333333333 0  0.3333333333333333 0.03333333333333333 0  0.3666666666666666 0.03333333333333333 0  0.4 0.03333333333333333 0  0.4333333333333333 0.03333333333333333 0  0.4666666666666667 0.03333333333333333 0  0.5 0.03333333333333333 0  0.5333333333333333 0.03333333333333333 0  0.5666666666666667 0.03333333333333333 0  0.6 0.03333333333333333 0  0.6333333333333333 0.03333333333333333 0  0.6666666666666666 0.03333333333333333 0  0.7 0.03333333333333333 0  0.7333333333333333 0.03333333333333333 0  0.7666666666666667 0.03333333333333333 0  0.8 0.03333333333333333 0  0.8333333333333334 0.03333333333333333 0  0.8666666666666667 0.03333333333333333 0  0.9 0.03333333333333333 0  0.9333333333333333 0.03333333333333333 0  0.9666666666666667 0.03333333333333333 0  1 0.03333333333333333 0  0 0.06666666666666667 0  0.03333333333333333 0.06666666666666667 0  0.06666666666666667 0.06666666666666667 0  0.1 0.06666666666666667 0  0.1333333333333333 0.06666666666666667 0  0.1666666666666667 0.06666666666666667 0  0.2 0.06666666666666667 0  0.2333333333333333 0.06666666666666667 0  0.2666666666666667 0.06666666666666667 0  0.3 0.06666666666666667 0  0.3333333333333333 0.06666666666666667 0  0.3666666666666666 0.06666666666666667 0  0.4 0.06666666666666667 0  0.4333333333333333 0.06666666666666667 0  0.4666666666666667 0.06666666666666667 0  0.5 0.06666666666666667 0  0.5333333333333333 0.06666666666666667 0  0.5666666666666667 0.06666666666666667 0  0.6 0.06666666666666667 0  0.6333333333333333 0.06666666666666667 0  0.6666666666666666 0.06666666666666667 0  0.7 0.06666666666666667 0  0.7333333333333333 0.06666666666666667 0  0.7666666666666667 0.06666666666666667 0  0.8 0.06666666666666667 0  0.8333333333333334 0.06666666666666667 0  0.8666666666666667 0.06666666666666667 0  0.9 0.06666666666666667 0  0.9333333333333333 0.06666666666666667 0  0.9666666666666667 0.06666666666666667 0  1 0.06666666666666667 0  0 0.1 0  0.03333333333333333 0.1 0  0.06666666666666667 0.1 0  0.1 0.1 0  0.1333333333333333 0.1 0  0.1666666666666667 0.1 0  0.2 0.1 0  0.2333333333333333 0.1 0  0.2666666666666667 0.1 0  0.3 0.1 0  0.3333333333333333 0.1 0  0.3666666666666666 0.1 0  0.4 0.1 0  0.4333333333333333 0.1 0  0.4666666666666667 0.1 0  0.5 0.1 0  0.5333333333333333 0.1 0  0.5666666666666667 0.1 0  0.6 0.1 0  0.6333333333333333 0.1 0  0.6666666666666666 0.1 0  0.7 0.1 0  0.7333333333333333 0.1 0  0.7666666666666667 0.1 0  0.8 0.1 0  0.8333333333333334 0.1 0  0.8666666666666667 0.1 0  0.9 0.1 0  0.9333333333333333 0.1 0  0.9666666666666667 0.1 0  1 0.1 0  0 0.1333333333333333 0  0.03333333333333333 0.1333333333333333 0  0.06666666666666667 0.1333333333333333 0  0.1 0.1333333333333333 0  0.1333333333333333 0.1333333333333333 0  0.1666666666666667 0.1333333333333333 0  0.2 0.1333333333333333 0  0.2333333333333333 0.1333333333333333 0  0.2666666666666667 0.1333333333333333 0  0.3 0.1333333333333333 0  0.3333333333333333 0.1333333333333333 0  0.3666666666666666 0.1333333333333333 0  0.4 0.1333333333333333 0  0.4333333333333333 0.1333333333333333 0  0.4666666666666667 0.1333333333333333 0  0.5 0.1333333333333333 0  0.5333333333333333 0.1333333333333333 0  0.5666666666666667 0.1333333333333333 0  0.6 0.1333333333333333 0  0.6333333333333333 0.1333333333333333 0  0.6666666666666666 0.1333333333333333 0  0.7 0.1333333333333333 0  0.7333333333333333 0.1333333333333333 0  0.7666666666666667 0.1333333333333333 0  0.8 0.1333333333333333 0  0.8333333333333334 0.1333333333333333 0  0.8666666666666667 0.1333333333333333 0  0.9 0.1333333333333333 0  0.9333333333333333 0.1333333333333333 0  0.9666666666666667 0.1333333333333333 0  1 0.1333333333333333 0  0 0.1666666666666667 0  0.03333333333333333 0.1666666666666667 0  0.06666666666666667 0.1666666666666667 0  0.1 0.1666666666666667 0  0.1333333333333333 0.1666666666666667 0  0.1666666666666667 0.1666666666666667 0  0.2 0.1666666666666667 0  0.2333333333333333 0.1666666666666667 0  0.2666666666666667 0.1666666666666667 0  0.3 0.1666666666666667 0  0.3333333333333333 0.1666666666666667 0  0.3666666666666666 0.1666666666666667 0  0.4 0.1666666666666667 0  0.4333333333333333 0.1666666666666667 0  0.4666666666666667 0.1666666666666667 0  0.5 0.1666666666666667 0  0.5333333333333333 0.1666666666666667 0  0.5666666666666667 0.1666666666666667 0  0.6 0.1666666666666667 0  0.6333333333333333 0.1666666666666667 0  0.6666666666666666 0.1666666666666667 0  0.7 0.1666666666666667 0  0.7333333333333333 0.1666666666666667 0  0.7666666666666667 0.1666666666666667 0  0.8 0.1666666666666667 0  0.8333333333333334 0.1666666666666667 0  0.8666666666666667 0.1666666666666667 0  0.9 0.1666666666666667 0  0.9333333333333333 0.1666666666666667 0  0.9666666666666667 0.1666666666666667 0  1 0.1666666666666667 0  0 0.2 0  0.03333333333333333 0.2 0  0.06666666666666667 0.2 0  0.1 0.2 0  0.1333333333333333 0.2 0  0.1666666666666667 0.2 0  0.2 0.2 0  0.2333333333333333 0.2 0  0.2666666666666667 0.2 0  0.3 0.2 0  0.3333333333333333 0.2 0  0.3666666666666666 0.2 0  0.4 0.2 0  0.4333333333333333 0.2 0  0.4666666666666667 0.2 0  0.5 0.2 0  0.5333333333333333 0.2 0  0.5666666666666667 0.2 0  0.6 0.2 0  0.6333333333333333 0.2 0  0.6666666666666666 0.2 0  0.7 0.2 0  0.7333333333333333 0.2 0  0.7666666666666667 0.2 0  0.8 0.2 0  0.8333333333333334 0.2 0  0.8666666666666667 0.2 0  0.9 0.2 0  0.9333333333333333 0.2 0  0.9666666666666667 0.2 0  1 0.2 0  0 0.2333333333333333 0  0.03333333333333333 0.2333333333333333 0  0.06666666666666667 0.2333333333333333 0  0.1 0.2333333333333333 0  0.1333333333333333 0.2333333333333333 0  0.1666666666666667 0.2333333333333333 0  0.2 0.2333333333333333 0  0.2333333333333333 0.2333333333333333 0  0.2666666666666667 0.2333333333333333 0  0.3 0.2333333333333333 0  0.3333333333333333 0.2333333333333333 0  0.3666666666666666 0.2333333333333333 0  0.4 0.2333333333333333 0  0.4333333333333333 0.2333333333333333 0  0.4666666666666667 0.2333333333333333 0  0.5 0.2333333333333333 0  0.5333333333333333 0.2333333333333333 0  0.5666666666666667 0.2333333333333333 0  0.6 0.2333333333333333 0  0.6333333333333333 0.2333333333333333 0  0.6666666666666666 0.2333333333333333 0  0.7 0.2333333333333333 0  0.7333333333333333 0.2333333333333333 0  0.7666666666666667 0.2333333333333333 0  0.8 0.2333333333333333 0  0.8333333333333334 0.2333333333333333 0  0.8666666666666667 0.2333333333333333 0  0.9 0.2333333333333333 0  0.9333333333333333 0.2333333333333333 0  0.9666666666666667 0.2333333333333333 0  1 0.2333333333333333 0  0 0.2666666666666667 0  0.03333333333333333 0.2666666666666667 0  0.06666666666666667 0.2666666666666667 0  0.1 0.2666666666666667 0  0.1333333333333333 0.2666666666666667 0  0.1666666666666667 0.2666666666666667 0  0.2 0.2666666666666667 0  0.2333333333333333 0.2666666666666667 0  0.2666666666666667 0.2666666666666667 0  0.3 0.2666666666666667 0  0.3333333333333333 0.2666666666666667 0  0.3666666666666666 0.2666666666666667 0  0.4 0.2666666666666667 0  0.4333333333333333 0.2666666666666667 0  0.4666666666666667 0.2666666666666667 0  0.5 0.2666666666666667 0  0.5333333333333333 0.2666666666666667 0  0.5666666666666667 0.2666666666666667 0  0.6 0.2666666666666667 0  0.6333333333333333 0.2666666666666667 0  0.6666666666666666 0.2666666666666667 0  0.7 0.2666666666666667 0  0.7333333333333333 0.2666666666666667 0  0.7666666666666667 0.2666666666666667 0  0.8 0.2666666666666667 0  0.8333333333333334 0.2666666666666667 0  0.8666666666666667 0.2666666666666667 0  0.9 0.2666666666666667 0  0.9333333333333333 0.2666666666666667 0  0.9666666666666667 0.2666666666666667 0  1 0.2666666666666667 0  0 0.3 0  0.03333333333333333 0.3 0  0.06666666666666667 0.3 0  0.1 0.3 0  0.1333333333333333 0.3 0  0.1666666666666667 0.3 0  0.2 0.3 0  0.2333333333333333 0.3 0  0.2666666666666667 0.3 0  0.3 0.3 0  0.3333333333333333 0.3 0  0.3666666666666666 0.3 0  0.4 0.3 0  0.4333333333333333 0.3 0  0.4666666666666667 0.3 0  0.5 0.3 0  0.5333333333333333 0.3 0  0.5666666666666667 0.3 0  0.6 0.3 0  0.6333333333333333 0.3 0  0.6666666666666666 0.3 0  0.7 0.3 0  0.7333333333333333 0.3 0  0.7666666666666667 0.3 0  0.8 0.3 0  0.8333333333333334 0.3 0  0.8666666666666667 0.3 0  0.9 0.3 0  0.9333333333333333 0.3 0  0.9666666666666667 0.3 0  1 0.3 0  0 0.3333333333333333 0  0.03333333333333333 0.3333333333333333 0  0.06666666666666667 0.3333333333333333 0  0.1 0.3333333333333333 0  0.1333333333333333 0.3333333333333333 0  0.1666666666666667 0.3333333333333333 0  0.2 0.3333333333333333 0  0.2333333333333333 0.3333333333333333 0  0.2666666666666667 0.3333333333333333 0  0.3 0.3333333333333333 0  0.3333333333333333 0.3333333333333333 0  0.3666666666666666 0.3333333333333333 0  0.4 0.3333333333333333 0  0.4333333333333333 0.3333333333333333 0  0.4666666666666667 0.3333333333333333 0  0.5 0.3333333333333333 0  0.5333333333333333 0.33333333333333
[...]
<PointData  Vectors="u_f"> 
<DataArray  type="Float64"  Name="u_f"  NumberOfComponents="3" format="ascii">2.7085409753765033e-06 -1.4243669069192132e-09 0.0000000000000000e+00  2.7085409788950646e-06 -1.4243699716334941e-09 0.0000000000000000e+00  2.7085409785699665e-06 -1.4243677108009140e-09 0.0000000000000000e+00  2.7085409789103518e-06 -1.4243724983666571e-09 0.0000000000000000e+00  2.7085409821384012e-06 -1.4243868014327671e-09 0.0000000000000000e+00  2.7085409710344362e-06 -1.4243746886176759e-09 0.0000000000000000e+00  2.7085409804212960e-06 -1.4243629529423103e-09 0.0000000000000000e+00  2.7085409841615766e-06 -1.4243703649278322e-09 0.0000000000000000e+00  2.7085409805740058e-06 -1.4243699945101600e-09 0.0000000000000000e+00  2.7085409801686226e-06 -1.4243647461042834e-09 0.0000000000000000e+00  2.7085409794369488e-06 -1.4243773446419479e-09 0.0000000000000000e+00  2.7085409718568035e-06 -1.4244017559417524e-09 0.0000000000000000e+00  2.7085409648280835e-06 -1.4243745465329812e-09 0.0000000000000000e+00  2.7085409873544436e-06 -1.4243732545434623e-09 0.0000000000000000e+00  2.7085409837379788e-06 -1.4243667432046851e-09 0.0000000000000000e+00  2.7085409730572864e-06 -1.4243731938823508e-09 0.0000000000000000e+00  2.7085409832332285e-06 -1.4243766684792630e-09 0.0000000000000000e+00  2.7085409734786074e-06 -1.4243643010935017e-09 0.0000000000000000e+00  2.7085409803968472e-06 -1.4243696279956156e-09 0.0000000000000000e+00  2.7085409796182274e-06 -1.4243728675374968e-09 0.0000000000000000e+00  2.7085409794639454e-06 -1.4243730049059121e-09 0.0000000000000000e+00  2.7085409776173865e-06 -1.4243767683342831e-09 0.0000000000000000e+00  2.7085409962330294e-06 -1.4243350385852865e-09 0.0000000000000000e+00  2.7085409985518126e-06 -1.4243699592735894e-09 0.0000000000000000e+00  2.7085409705771739e-06 -1.4243796305738084e-09 0.0000000000000000e+00  2.7085409796524340e-06 -1.4243689760106391e-09 0.0000000000000000e+00  2.7085409870470723e-06 -1.4243704597413122e-09 0.0000000000000000e+00  2.7085409822530013e-06 -1.4243789303960454e-09 0.0000000000000000e+00  2.7085409798454762e-06 -1.4243822469162809e-09 0.0000000000000000e+00  2.7085409742816217e-06 -1.4243761580910903e-09 0.0000000000000000e+00  2.7085409753765575e-06 3.0494374872955050e-10 0.0000000000000000e+00  4.1704981383663443e-04 -3.0143595683776447e-09 0.0000000000000000e+00  4.1704981383559783e-04 -3.0143603278612666e-09 0.0000000000000000e+00  4.1704981383246383e-04 -3.0143578048143910e-09 0.0000000000000000e+00  4.1704981382922912e-04 -3.0143594707994492e-09 0.0000000000000000e+00  4.1704981384391745e-04 -3.0143585961735567e-09 0.0000000000000000e+00  4.1704981382600622e-04 -3.0143680813162627e-09 0.0000000000000000e+00  4.1704981383669569e-04 -3.0143677332873653e-09 0.0000000000000000e+00  4.1704981383249213e-04 -3.0143781802258185e-09 0.0000000000000000e+00  4.1704981382299441e-04 -3.0143683186481182e-09 0.0000000000000000e+00  4.1704981383457759e-04 -3.0143690523277283e-09 0.0000000000000000e+00  4.1704981383013779e-04 -3.0143553718647159e-09 0.0000000000000000e+00  4.1704981381712758e-04 -3.0143766445618614e-09 0.0000000000000000e+00  4.1704981382463373e-04 -3.0143769773035081e-09 0.0000000000000000e+00  4.1704981383126546e-04 -3.0143728335912251e-09 0.0000000000000000e+00  4.1704981382955221e-04 -3.0143604727106768e-09 0.0000000000000000e+00  4.1704981383930385e-04 -3.0143511053123268e-09 0.0000000000000000e+00  4.1704981383920898e-04 -3.0143541397773671e-09 0.0000000000000000e+00  4.1704981383356733e-04 -3.0143643348556556e-09 0.0000000000000000e+00  4.1704981383543195e-04 -3.0143655285622475e-09 0.0000000000000000e+00  4.1704981382585508e-04 -3.0143602441608588e-09 0.0000000000000000e+00  4.1704981383833847e-04 -3.0143576455450918e-09 0.0000000000000000e+00  4.1704981382975734e-04 -3.0143545093818877e-09 0.0000000000000000e+00  4.1704981386331600e-04 -3.0143317525203883e-09 0.0000000000000000e+00  4.1704981384442150e-04 -3.0143604417024947e-09 0.0000000000000000e+00  4.1704981383768557e-04 -3.0143544026963939e-09 0.0000000000000000e+00  4.1704981382597402e-04 -3.0143523027052060e-09 0.0000000000000000e+00  4.1704981384498116e-04 -3.0143749411718282e-09 0.0000000000000000e+00  4.1704981381821308e-04 -3.0143719558211463e-09 0.0000000000000000e+00  4.1704981383815687e-04 -3.0143644856681778e-09 0.0000000000000000e+00  4.1704981382826949e-04 -3.0143711342127399e-09 0.0000000000000000e+00  4.1704981383663465e-04 1.4375039454684915e-09 0.0000000000000000e+00  7.5927936984401475e-04 -4.1420336213638873e-09 0.0000000000000000e+00  7.5927936985679750e-04 -4.1420321886991365e-09 0.0000000000000000e+00  7.5927936984731788e-04 -4.1420303648542420e-09 0.0000000000000000e+00  7.5927936985937714e-04 -4.1420394763808793e-09 0.0000000000000000e+00  7.5927936984551334e-04 -4.1420397249884375e-09 0.0000000000000000e+00  7.5927936985241071e-04 -4.1420448749487568e-09 0.0000000000000000e+00  7.5927936984355852e-04 -4.1420481183395558e-09 0.0000000000000000e+00  7.5927936984364428e-04 -4.1420398420822721e-09 0.0000000000000000e+00  7.5927936985148935e-04 -4.1420437134429694e-09 0.0000000000000000e+00  7.5927936984884509e-04 -4.1420451280015438e-09 0.0000000000000000e+00  7.5927936984530040e-04 -4.1420350680148460e-09 0.0000000000000000e+00  7.5927936983362560e-04 -4.1420615164763225e-09 0.0000000000000000e+00  7.5927936983616611e-04 -4.1420377041440082e-09 0.0000000000000000e+00  7.5927936984909478e-04 -4.1420486919909252e-09 0.0000000000000000e+00  7.5927936983829212e-04 -4.1420424769103917e-09 0.0000000000000000e+00  7.5927936985099008e-04 -4.1420517002182730e-09 0.0000000000000000e+00  7.5927936983985716e-04 -4.1420520101916741e-09 0.0000000000000000e+00  7.5927936984834679e-04 -4.1420448545657559e-09 0.0000000000000000e+00  7.5927936984210471e-04 -4.1420403570783040e-09 0.0000000000000000e+00  7.5927936984384312e-04 -4.1420418876465109e-09 0.0000000000000000e+00  7.5927936985194374e-04 -4.1420493697257033e-09 0.0000000000000000e+00  7.5927936984308158e-04 -4.1420482724046845e-09 0.0000000000000000e+00  7.5927936986421680e-04 -4.1420127825644512e-09 0.0000000000000000e+00  7.5927936986908162e-04 -4.1420276652992527e-09 0.0000000000000000e+00  7.5927936984159145e-04 -4.1420524589429533e-09 0.0000000000000000e+00  7.5927936983937936e-04 -4.1420533592644374e-09 0.0000000000000000e+00  7.5927936985054610e-04 -4.1420444485320423e-09 0.0000000000000000e+00  7.5927936983409159e-04 -4.1420445907793674e-09 0.0000000000000000e+00  7.5927936984807401e-04 -4.1420420242559847e-09 0.0000000000000000e+00  7.5927936985081075e-04 -4.1420402066994627e-09 0.0000000000000000e+00  7.5927936984401497e-04 2.3539092658868643e-09 0.0000000000000000e+00  9.7022264558033981e-04 -4.5116320529763748e-09 0.0000000000000000e+00  9.7022264557342932e-04 -4.5116292106319594e-09 0.0000000000000000e+00  9.7022264557550014e-04 -4.5116301994243407e-09 0.0000000000000000e+00  9.7022264558569099e-04 -4.5116305760761755e-09 0.0000000000000000e+00  9.7022264556823252e-04 -4.5116416518518887e-09 0.0000000000000000e+00  9.7022264556376647e-04 -4.5116434316781751e-09 0.0000000000000000e+00  9.7022264557676150e-04 -4.5116265207263695e-09 0.0000000000000000e+00  9.7022264557056334e-04 -4.5116372081408646e-09 0.0000000000000000e+00  9.7022264558043326e-04 -4.5116299255548720e-09 0.0000000000000000e+00  9.7022264557292668e-04 -4.5116421490670050e-09 0.0000000000000000e+00  9.7022264557009756e-04 -4.5116331358775047e-09 0.0000000000000000e+00  9.7022264556961141e-04 -4.5116178720456396e-09 0.0000000000000000e+00  9.7022264558075636e-04 -4.5116324406870717e-09 0.0000000000000000e+00  9.7022264557942235e-04 -4.5116242905225007e-09 0.0000000000000000e+00  9.7022264557518421e-04 -4.5116394392120951e-09 0.0000000000000000e+00  9.7022264556805319e-04 -4.5116287604712174e-09 0.0000000000000000e+00  9.7022264557470954e-04 -4.5116412524318084e-09 0.0000000000000000e+00  9.7022264557364854e-04 -4.5116284113581179e-09 0.0000000000000000e+00  9.7022264557810158e-04 -4.5116264509037496e-09 0.0000000000000000e+00  9.7022264557508208e-04 -4.5116321258347608e-09 0.0000000000000000e+00  9.7022264557545764e-04 -4.5116246454902920e-09 0.0000000000000000e+00  9.7022264557625692e-04 -4.5116262910923494e-09 0.0000000000000000e+00  9.7022264558619190e-04 -4.5116429830353161e-09 0.0000000000000000e+00  9.7022264557057223e-04 -4.5116356154478732e-09 0.0000000000000000e+00  9.7022264558018368e-04 -4.5116282012397368e-09 0.0000000000000000e+00  9.7022264557367717e-04 -4.5116291750701282e-09 0.0000000000000000e+00  9.7022264556834159e-04 -4.5116342495699763e-09 0.0000000000000000e+00  9.7022264557771235e-04 -4.5116174041039819e-09 0.0000000000000000e+00  9.7022264557639483e-04 -4.5116263535423945e-09 0.0000000000000000e+00  9.7022264556952424e-04 -4.5116286674466710e-09 0.0000000000000000e+00  9.7022264558034046e-04 2.8653342110640434e-09 0.0000000000000000e+00  1.0134056494747654e-03 -4.0012890872810278e-09 0.0000000000000000e+00  1.0134056494669444e-03 -4.0012911299179207e-09 0.0000000000000000e+00  1.0134056494664487e-03 -4.0013007424543820e-09 0.0000000000000000e+00  1.0134056494676509e-03 -4.0013123868941347e-09 0.0000000000000000e+00  1.0134056494645210e-03 -4.0012991621212954e-09 0.0000000000000000e+00  1.0134056494655261e-03 -4.0012927128530926e-09 0.0000000000000000e+00  1.0134056494670715e-03 -4.0013036456225393e-09 0.0000000000000000e+00  1.0134056494689263e-03 -4.0013014702793004e-09 0.0000000000000000e+00  1.0134056494704967e-03 -4.0012994767567658e-09 0.0000000000000000e+00  1.0134056494642708e-03 -4.0012969087155001e-09 0.0000000000000000e+00  1.0134056494603037e-03 -4.0013011959761507e-09 0.0000000000000000e+00  1.0134056494780044e-03 -4.0012991670002052e-09 0.0000000000000000e+00  1.0134056494699346e-03 -4.0012978090369841e-09 0.0000000000000000e+00  1.0134056494680906e-03 -4.0013048607963342e-09 0.0000000000000000e+00  1.0134056494702033e-03 -4.0013009153846285e-09 0.0000000000000000e+00  1.0134056494640129e-03 -4.0013047829506182e-09 0.0000000000000000e+00  1.0134056494693205e-03 -4.0013019198979413e-09 0.0000000000000000e+00  1.0134056494625057e-03 -4.0013063684878752e-09 0.0000000000000000e+00  1.0134056494688997e-03 -4.0012948408166965e-09 0.0000000000000000e+00  1.0134056494672645e-03 -4.0013031428779919e-09 0.0000000000000000e+00  1.0134056494700270e-03 -4.0012992337870590e-09 0.0000000000000000e+00  1.0134056494721520e-03 -4.0013023874059181e-09 0.0000000000000000e+00  1.0134056494721139e-03 -4.0012972967514576e-09 0.0000000000000000e+00  1.0134056494626475e-03 -4.0012940559627438e-09 0.0000000000000000e+00  1.0134056494672432e-03 -4.0012938147277605e-09 0.0000000000000000e+00  1.0134056494675119e-03 -4.0012935167890035e-09 0.0000000000000000e+00  1.0134056494688587e-03 -4.0012905153921294e-09 0.0000000000000000e+00  1.0134056494723884e-03 -4.0012967197390614e-09 0.0000000000000000e+00  1.0134056494707270e-03 -4.0013036997242277e-09 0.0000000000000000e+00  1.0134056494626967e-03 -4.0013001228328404e-09 0.0000000000000000e+00  1.0134056494747656e-03 2.8568681991857938e-09 0.0000000000000000e+00  8.8136163497512608e-04 -2.7226251795610390e-09 0.0000000000000000e+00  8.8136163497796256e-04 -2.7226301836961661e-09 0.0000000000000000e+00  8.8136163497162009e-04 -2.7226350657501286e-09 0.0000000000000000e+00  8.8136163497118131e-04 -2.7226221684063454e-09 0.0000000000000000e+00  8.8136163497397064e-04 -2.7226219527585332e-09 0.0000000000000000e+00  8.8136163497751002e-04 -2.7226186398703750e-09 0.0000000000000000e+00  8.8136163497103484e-04 -2.7226139950398479e-09 0.0000000000000000e+00  8.8136163497884966e-04 -2.7226188504224369e-09 0.0000000000000000e+00  8.8136163496756452e-04 -2.7226336349285216e-09 0.0000000000000000e+00  8.8136163497406486e-04 -2.7226274612645110e-09 0.0000000000000000e+00  8.8136163497523688e-04 -2.7226116257328403e-09 0.0000000000000000e+00  8.8136163498203732e-04 -2.7226097472441563e-09 0.0000000000000000e+00  8.8136163497583287e-04 -2.7226222950411591e-09 0.0000000000000000e+00  8.8136163497253353e-04 -2.7226248370615727e-09 0.0000000000000000e+00  8.8136163497584555e-04 -2.7226169147962984e-09 0.0000000000000000e+00  8.8136163497412091e-04 -2.7226179501009529e-09 0.0000000000000000e+00  8.8136163497560529e-04 -2.7226130876710497e-09 0.0000000000000000e+00  8.8136163498139645e-04 -2.7226195811747012e-09 0.0000000000000000e+00  8.8136163496661032e-04 -2.7226335152326017e-09 0.0000000000000000e+00  8.8136163497690807e-04 -2.7226218410857095e-09 0.0000000000000000e+00  8.8136163497540569e-04 -2.7226236283929908e-09 0.0000000000000000e+00  8.8136163497030821e-04 -2.7226263641603327e-09 0.0000000000000000e+00  8.8136163497020380e-04 -2.7226133511321776e-09 0.0000000000000000e+00  8.8136163498732498e-04 -2.7226092162019322e-09 0.0000000000000000e+00  8.8136163497446330e-04 -2.7226023880050701e-09 0.0000000000000000e+00  8.8136163497269269e-04 -2.7226249387597365e-09 0.0000000000000000e+00  8.8136163497452228e-04 -2.7226066071778243e-09 0.0000000000000000e+00  8.8136163498015807e-04 -2.7226135302423765e-09 0.0000000000000000e+00  8.8136163497050640e-04 -2.7226209930227702e-09 0.0000000000000000e+00  8.8136163497935078e-04 -2.7226193900298581e-09 0.0000000000000000e+00  8.8136163497512651e-04 2.3247653189761571e-09 0.0000000000000000e+00  5.9692217732528158e-04 -9.8577398235369026e-10 0.0000000000000000e+00  5.9692217733083074e-04 -9.8577819290703722e-10 0.0000000000000000e+00  5.9692217733260168e-04 -9.8577211644175142e-10 0.0000000000000000e+00  5.9692217732887722e-04 -9.8577484429441739e-10 0.0000000000000000e+00  5.9692217733055752e-04 -9.8577948950441530e-10 0.0000000000000000e+00  5.9692217733130454e-04 -9.8576956043512978e-10 0.0000000000000000e+00  5.9692217733118527e-04 -9.8577099114831659e-10 0.0000000000000000e+00  5.9692217733100259e-04 -9.8577330814256930e-10 0.0000000000000000e+00  5.9692217732324566e-04 -9.8577007082330248e-10 0.0000000000000000e+00  5.9692217733569295e-04 -9.8577462837555474e-10 0.0000000000000000e+00  5.9692217732893165e-04 -9.8578261867451542e-10 0.0000000000000000e+00  5.9692217732209359e-04 -9.8576815075546512e-10 0.0000000000000000e+00  5.9692217733995289e-04 -9.8577529862933777e-10 0.0000000000000000e+00  5.9692217732392643e-04 -9.8577107848080159e-10 0.0000000000000000e+00  5.9692217733098871e-04 -9.8577742008772867e-10 0.0000000000000000e+00  5.9692217733673053e-04 -9.8577329719212736e-10 0.0000000000000000e+00  5.9692217732849699e-04 -9.8576459159078339e-10 0.0000000000000000e+00  5.9692217732983826e-04 -9.8576652092854933e-10 0.0000000000000000e+00  5.9692217733044108e-04 -9.8576740943222968e-10 0.0000000000000000e+00  5.9692217733014552e-04 -9.8576904728224155e-10 0.0000000000000000e+00  5.9692217733680253e-04 -9.8578283941807773e-10 0.0000000000000000e+00  5.9692217732642454e-04 -9.8577481827356525e-10 0.0000000000000000e+00  5.9692217733440666e-04 -9.8578007540726931e-10 0.0000000000000000e+00  5.9692217733504937e-04 -9.8578672693338740e-10 0.0000000000000000e+00  5.9692217732105601e-04 -9.8578110567038371e-10 0.0000000000000000e+00  5.9692217733027671e-04 -9.8577814243742609e-10 0.0000000000000000e+00  5.9692217732136544e-04 -9.8577538254658592e-10 0.0000000000000000e+00  5.9692217733762001e-04 -9.8577620507656408e-10 0.0000000000000000e+00  5.9692217732071947e-04 -9.8577154691035021e-10 0.0000000000000000e+00  5.9692217733279033e-04 -9.8578294675409281e-10 0.0000000000000000e+00  5.9692217732528168e-04 1.3805317959302049e-09 0.0000000000000000e+00  2.0926940954342851e-04 8.1305169571227985e-10 0.0000000000000000e+00  2.0926940955006242e-04 8.1305465964996888e-10 0.0000000000000000e+00  2.0926940954403735e-04 8.1304073022703260e-10 0.0000000000000000e+00  2.0926940955106260e-04 8.1304773272294645e-10 0.0000000000000000e+00  2.0926940954160033e-04 8.1304362164514882e-10 0.0000000000000000e+00  2.0926940954824776e-04 8.1305216685233390e-10 0.0000000000000000e+00  2.0926940954496298e-04 8.1304260845821864e-10 0.0000000000000000e+00  2.0926940955015008e-04 8.1304946210672673e-10 0.0000000000000000e+00  2.0926940953900378e-04 8.1305452384009425e-10 0.0000000000000000e+00  2.0926940956068549e-04 8.1305841940560505e-10 0.0000000000000000e+00  2.0926940954589681e-04 8.1305778441549768e-10 0.0000000000000000e+00  2.0926940955263122e-04 8.1305005982738442e-10 0.0000000000000000e+00  2.0926940955121062e-04 8.1305178640579158e-10 0.0000000000000000e+00  2.0926940954077330e-04 8.1304785385543418e-10 0.0000000000000000e+00  2.0926940955391351e-04 8.1304895579786471e-10 0.0000000000000000e+00  2.0926940954390979e-04 8.1304899140035355e-10 0.0000000000000000e+00  2.0926940956225151e-04 8.1304308575112002e-10 0.0000000000000000e+00  2.0926940954426048e-04 8.1305210926764602e-10 0.0000000000000000e+00  2.0926940954489647e-04 8.1306150377105039e-10 0.0000000000000000e+00  2.0926940956226517e-04 8.1304883363538492e-10 0.0000000000000000e+00  2.0926940954273039e-04 8.1304428487872279e-10 0.0000000000000000e+00  2.0926940954252784e-04 8.1304223664463611e-10 0.0000000000000000e+00  2.0926940954547245e-04 8.1304038221168776e-10 0.0000000000000000e+00  2.0926940954544768e-04 8.1304350383303026e-10 0.0000000000000000e+00  2.0926940953966639e-04 8.1305183169833734e-10 0.0000000000000000e+00  2.0926940955668034e-04 8.1304180742254855e-10 0.0000000000000000e+00  2.0926940954523151e-04 8.1304120529731953e-10 0.0000000000000000e+00  2.0926940954161106e-04 8.1305520602010118e-10 0.0000000000000000e+00  2.0926940954598571e-04 8.1304867389174734e-10 0.0000000000000000e+00  2.0926940954384544e-04 8.1305105363420078e-10 0.0000000000000000e+00  2.0926940954342851e-04 2.1857930104625668e-10 0.0000000000000000e+00  -2.1456799314466463e-04 2.3235230399865775e-09 0.0000000000000000e+00  -2.1456799314444519e-04 2.3235367616492725e-09 0.0000000000000000e+00  -2.1456799313607992e-04 2.3235327545464632e-09 0.0000000000000000e+00  -2.1456799314732391e-04 2.3235371620993449e-09 0.0000000000000000e+00  -2.1456799313581716e-04 2.3235338255755793e-09 0.0000000000000000e+00  -2.1456799314133120e-04 2.3235258271451023e-09 0.0000000000000000e+00  -2.1456799314639448e-04 2.3235215112615143e-09 0.0000000000000000e+00  -2.1456799314353511e-04 2.3235230598274773e-09 0.0000000000000000e+00  -2.1456799314414530e-04 2.3235309377488828e-09 0.0000000000000000e+00  -2.1456799313825022e-04 2.3235255425962421e-09 0.0000000000000000e+00  -2.1456799314660243e-04 2.3235207902670696e-09 0.0000000000000000e+00  -2.1456799314551584e-04 2.3235271085094399e-09 0.0000000000000000e+00  -2.1456799314550722e-04 2.3235250401227453e-09 0.0000000000000000e+00  -2.1456799313730566e-04 2.3235238233768572e-09 0.0000000000000000e+00  -2.1456799314604211e-04 2.3235294817737853e-09 0.0000000000000000e+00  -2.1456799314501949e-04 2.3235307242694750e-09 0.0000000000000000e+00  -2.1456799314469602e-04 2.3235309884895444e-09 0.0000000000000000e+00  -2.1456799314071787e-04 2.3235151842913165e-09 0.0000000000000000e+00  -2.1456799314275497e-04 2.3235244549246227e-09 0.0000000000000000e+00  -2.1456799314826792e-04 2.3235194610352061e-09 0.0000000000000000e+00  -2.1456799314016069e-04 2.3235357298140649e-09 0.0000000000000000e+00  -2.1456799314633284e-04 2.3235347264391644e-09 0.0000000000000000e+00  -2.1456799314230064e-04 2.3235287483110156e-09 0.0000000000000000e+00  -2.1456799314893091e-04 2.3235327509685960e-09 0.0000000000000000e+00  -2.1456799313795727e-04 2.3235285459446801e-09 0.0000000000000000e+00  -2.1456799314622968e-04 2.3235155393133179e-09 0.0000000000000000e+00  -2.1456799314441760e-04 2.3235260798184186e-09 0.0000000000000000e+00  -2.1456799314470177e-04 2.3235274050929441e-09 0.0000000000000000e+00  -2.1456799314188094e-04 2.3235269689726203e-09 0.0000000000000000e+00  -2.1456799314626101e-04 2.3235199262121482e-09 0.0000000000000000e+00  -2.1456799314466469e-04 -9.3790134962486062e-10 0.0000000000000000e+00  -6.0130467346712949e-04 3.3278249908334778e-09 0.0000000000000000e+00  -6.0130467347105853e-04 3.3278193407306964e-09 0.00