<?xml version="1.0"?>
<VTKFile type="UnstructuredGrid"  version="0.1"  >
<UnstructuredGrid>
<Piece  NumberOfPoints="961" NumberOfCells="1800">
<Points>
<DataArray  type="Float64"  NumberOfComponents="3"  format="ascii">0 0 0  0.03333333333333333 0 0  0.06666666666666667 0 0  0.1 0 0  0.1333333333333333 0 0  0.1666666666666667 0 0  0.2 0 0  0.2333333333333333 0 0  0.2666666666666667 0 0  0.3 0 0  0.3333333333333333 0 0  0.3666666666666666 0 0  0.4 0 0  0.4333333333333333 0 0  0.4666666666666667 0 0  0.5 0 0  0.5333333333333333 0 0  0.5666666666666667 0 0  0.6 0 0  0.6333333333333333 0 0  0.6666666666666666 0 0  0.7 0 0  0.7333333333333333 0 0  0.7666666666666667 0 0  0.8 0 0  0.8333333333333334 0 0  0.8666666666666667 0 0  0.9 0 0  0.9333333333333333 0 0  0.9666666666666667 0 0  1 0 0  0 0.03333333333333333 0  0.03333333333333333 0.03333333333333333 0  0.06666666666666667 0.03333333333333333 0  0.1 0.03333333333333333 0  0.1333333333333333 0.03333333333333333 0  0.1666666666666667 0.03333333333333333 0  0.2 0.03333333333333333 0  0.2333333333333333 0.03333333333333333 0  0.2666666666666667 0.03333333333333333 0  0.3 0.03333333333333333 0  0.3333333333333333 0.03333333333333333 0  0.3666666666666666 0.03333333333333333 0  0.4 0.03333333333333333 0  0.4333333333333333 0.03333333333333333 0  0.4666666666666667 0.03333333333333333 0  0.5 0.03333333333333333 0  0.5333333333333333 0.03333333333333333 0  0.5666666666666667 0.03333333333333333 0  0.6 0.03333333333333333 0  0.6333333333333333 0.03333333333333333 0  0.6666666666666666 0.03333333333333333 0  0.7 0.03333333333333333 0  0.7333333333333333 0.03333333333333333 0  0.7666666666666667 0.03333333333333333 0  0.8 0.03333333333333333 0  0.8333333333333334 0.03333333333333333 0  0.8666666666666667 0.03333333333333333 0  0.9 0.03333333333333333 0  0.9333333333333333 0.03333333333333333 0  0.9666666666666667 0.03333333333333333 0  1 0.03333333333333333 0  0 0.06666666666666667 0  0.03333333333333333 0.06666666666666667 0  0.06666666666666667 0.06666666666666667 0  0.1 0.06666666666666667 0  0.1333333333333333 0.06666666666666667 0  0.1666666666666667 0.06666666666666667 0  0.2 0.06666666666666667 0  0.2333333333333333 0.06666666666666667 0  0.2666666666666667 0.06666666666666667 0  0.3 0.06666666666666667 0  0.3333333333333333 0.06666666666666667 0  0.3666666666666666 0.06666666666666667 0  0.4 0.06666666666666667 0  0.4333333333333333 0.06666666666666667 0  0.4666666666666667 0.06666666666666667 0  0.5 0.06666666666666667 0  0.5333333333333333 0.06666666666666667 0  0.5666666666666667 0.06666666666666667 0  0.6 0.06666666666666667 0  0.6333333333333333 0.06666666666666667 0  0.6666666666666666 0.06666666666666667 0  0.7 0.06666666666666667 0  0.7333333333333333 0.06666666666666667 0  0.7666666666666667 0.06666666666666667 0  0.8 0.06666666666666667 0  0.8333333333333334 0.06666666666666667 0  0.8666666666666667 0.06666666666666667 0  0.9 0.06666666666666667 0  0.9333333333333333 0.06666666666666667 0  0.9666666666666667 0.06666666666666667 0  1 0.06666666666666667 0  0 0.1 0  0.03333333333333333 0.1 0  0.06666666666666667 0.1 0  0.1 0.1 0  0.1333333333333333 0.1 0  0.1666666666666667 0.1 0  0.2 0.1 0  0.2333333333333333 0.1 0  0.2666666666666667 0.1 0  0.3 0.1 0  0.3333333333333333 0.1 0  0.3666666666666666 0.1 0  0.4 0.1 0  0.4333333333333333 0.1 0  0.4666666666666667 0.1 0  0.5 0.1 0  0.5333333333333333 0.1 0  0.5666666666666667 0.1 0  0.6 0.1 0  0.6333333333333333 0.1 0  0.6666666666666666 0.1 0  0.7 0.1 0  0.7333333333333333 0.1 0  0.7666666666666667 0.1 0  0.8 0.1 0  0.8333333333333334 0.1 0  0.8666666666666667 0.1 0  0.9 0.1 0  0.9333333333333333 0.1 0  0.9666666666666667 0.1 0  1 0.1 0  0 0.1333333333333333 0  0.03333333333333333 0.1333333333333333 0  0.06666666666666667 0.1333333333333333 0  0.1 0.1333333333333333 0  0.1333333333333333 0.1333333333333333 0  0.1666666666666667 0.1333333333333333 0  0.2 0.1333333333333333 0  0.2333333333333333 0.1333333333333333 0  0.2666666666666667 0.1333333333333333 0  0.3 0.1333333333333333 0  0.3333333333333333 0.1333333333333333 0  0.3666666666666666 0.1333333333333333 0  0.4 0.1333333333333333 0  0.4333333333333333 0.1333333333333333 0  0.4666666666666667 0.1333333333333333 0  0.5 0.1333333333333333 0  0.5333333333333333 0.1333333333333333 0  0.5666666666666667 0.1333333333333333 0  0.6 0.1333333333333333 0  0.6333333333333333 0.1333333333333333 0  0.6666666666666666 0.1333333333333333 0  0.7 0.1333333333333333 0  0.7333333333333333 0.1333333333333333 0  0.7666666666666667 0.1333333333333333 0  0.8 0.1333333333333333 0  0.8333333333333334 0.1333333333333333 0  0.8666666666666667 0.1333333333333333 0  0.9 0.1333333333333333 0  0.9333333333333333 0.1333333333333333 0  0.9666666666666667 0.1333333333333333 0  1 0.1333333333333333 0  0 0.1666666666666667 0  0.03333333333333333 0.1666666666666667 0  0.06666666666666667 0.1666666666666667 0  0.1 0.1666666666666667 0  0.1333333333333333 0.1666666666666667 0  0.1666666666666667 0.1666666666666667 0  0.2 0.1666666666666667 0  0.2333333333333333 0.1666666666666667 0  0.2666666666666667 0.1666666666666667 0  0.3 0.1666666666666667 0  0.3333333333333333 0.1666666666666667 0  0.3666666666666666 0.1666666666666667 0  0.4 0.1666666666666667 0  0.4333333333333333 0.1666666666666667 0  0.4666666666666667 0.1666666666666667 0  0.5 0.1666666666666667 0  0.5333333333333333 0.1666666666666667 0  0.5666666666666667 0.1666666666666667 0  0.6 0.1666666666666667 0  0.6333333333333333 0.1666666666666667 0  0.6666666666666666 0.1666666666666667 0  0.7 0.1666666666666667 0  0.7333333333333333 0.1666666666666667 0  0.7666666666666667 0.1666666666666667 0  0.8 0.1666666666666667 0  0.8333333333333334 0.1666666666666667 0  0.8666666666666667 0.1666666666666667 0  0.9 0.1666666666666667 0  0.9333333333333333 0.1666666666666667 0  0.9666666666666667 0.1666666666666667 0  1 0.1666666666666667 0  0 0.2 0  0.03333333333333333 0.2 0  0.06666666666666667 0.2 0  0.1 0.2 0  0.1333333333333333 0.2 0  0.1666666666666667 0.2 0  0.2 0.2 0  0.2333333333333333 0.2 0  0.2666666666666667 0.2 0  0.3 0.2 0  0.3333333333333333 0.2 0  0.3666666666666666 0.2 0  0.4 0.2 0  0.4333333333333333 0.2 0  0.4666666666666667 0.2 0  0.5 0.2 0  0.5333333333333333 0.2 0  0.5666666666666667 0.2 0  0.6 0.2 0  0.6333333333333333 0.2 0  0.6666666666666666 0.2 0  0.7 0.2 0  0.7333333333333333 0.2 0  0.7666666666666667 0.2 0  0.8 0.2 0  0.8333333333333334 0.2 0  0.8666666666666667 0.2 0  0.9 0.2 0  0.9333333333333333 0.2 0  0.9666666666666667 0.2 0  1 0.2 0  0 0.2333333333333333 0  0.03333333333333333 0.2333333333333333 0  0.06666666666666667 0.2333333333333333 0  0.1 0.2333333333333333 0  0.1333333333333333 0.2333333333333333 0  0.1666666666666667 0.2333333333333333 0  0.2 0.2333333333333333 0  0.2333333333333333 0.2333333333333333 0  0.2666666666666667 0.2333333333333333 0  0.3 0.2333333333333333 0  0.3333333333333333 0.2333333333333333 0  0.3666666666666666 0.2333333333333333 0  0.4 0.2333333333333333 0  0.4333333333333333 0.2333333333333333 0  0.4666666666666667 0.2333333333333333 0  0.5 0.2333333333333333 0  0.5333333333333333 0.2333333333333333 0  0.5666666666666667 0.2333333333333333 0  0.6 0.2333333333333333 0  0.6333333333333333 0.2333333333333333 0  0.6666666666666666 0.2333333333333333 0  0.7 0.2333333333333333 0  0.7333333333333333 0.2333333333333333 0  0.7666666666666667 0.2333333333333333 0  0.8 0.2333333333333333 0  0.8333333333333334 0.2333333333333333 0  0.8666666666666667 0.2333333333333333 0  0.9 0.2333333333333333 0  0.9333333333333333 0.2333333333333333 0  0.9666666666666667 0.2333333333333333 0  1 0.2333333333333333 0  0 0.2666666666666667 0  0.03333333333333333 0.2666666666666667 0  0.06666666666666667 0.2666666666666667 0  0.1 0.2666666666666667 0  0.1333333333333333 0.2666666666666667 0  0.1666666666666667 0.2666666666666667 0  0.2 0.2666666666666667 0  0.2333333333333333 0.2666666666666667 0  0.2666666666666667 0.2666666666666667 0  0.3 0.2666666666666667 0  0.3333333333333333 0.2666666666666667 0  0.3666666666666666 0.2666666666666667 0  0.4 0.2666666666666667 0  0.4333333333333333 0.2666666666666667 0  0.4666666666666667 0.2666666666666667 0  0.5 0.2666666666666667 0  0.5333333333333333 0.2666666666666667 0  0.5666666666666667 0.2666666666666667 0  0.6 0.2666666666666667 0  0.6333333333333333 0.2666666666666667 0  0.6666666666666666 0.2666666666666667 0  0.7 0.2666666666666667 0  0.7333333333333333 0.2666666666666667 0  0.7666666666666667 0.2666666666666667 0  0.8 0.2666666666666667 0  0.8333333333333334 0.2666666666666667 0  0.8666666666666667 0.2666666666666667 0  0.9 0.2666666666666667 0  0.9333333333333333 0.2666666666666667 0  0.9666666666666667 0.2666666666666667 0  1 0.2666666666666667 0  0 0.3 0  0.03333333333333333 0.3 0  0.06666666666666667 0.3 0  0.1 0.3 0  0.1333333333333333 0.3 0  0.1666666666666667 0.3 0  0.2 0.3 0  0.2333333333333333 0.3 0  0.2666666666666667 0.3 0  0.3 0.3 0  0.3333333333333333 0.3 0  0.3666666666666666 0.3 0  0.4 0.3 0  0.4333333333333333 0.3 0  0.4666666666666667 0.3 0  0.5 0.3 0  0.5333333333333333 0.3 0  0.5666666666666667 0.3 0  0.6 0.3 0  0.6333333333333333 0.3 0  0.6666666666666666 0.3 0  0.7 0.3 0  0.7333333333333333 0.3 0  0.7666666666666667 0.3 0  0.8 0.3 0  0.8333333333333334 0.3 0  0.8666666666666667 0.3 0  0.9 0.3 0  0.9333333333333333 0.3 0  0.9666666666666667 0.3 0  1 0.3 0  0 0.3333333333333333 0  0.03333333333333333 0.3333333333333333 0  0.06666666666666667 0.3333333333333333 0  0.1 0.3333333333333333 0  0.1333333333333333 0.3333333333333333 0  0.1666666666666667 0.3333333333333333 0  0.2 0.3333333333333333 0  0.2333333333333333 0.3333333333333333 0  0.2666666666666667 0.3333333333333333 0  0.3 0.3333333333333333 0  0.3333333333333333 0.3333333333333333 0  0.3666666666666666 0.3333333333333333 0  0.4 0.3333333333333333 0  0.4333333333333333 0.3333333333333333 0  0.4666666666666667 0.3333333333333333 0  0.5 0.3333333333333333 0  0.5333333333333333 0.33333333333333
[...]
<PointData  Vectors="u_f"> 
<DataArray  type="Float64"  Name="u_f"  NumberOfComponents="3" format="ascii">2.7081347385479303e-06 -3.2340144325536391e-09 0.0000000000000000e+00  2.7081347411436730e-06 -3.2340110223583358e-09 0.0000000000000000e+00  2.7081347490955370e-06 -3.2339965196363958e-09 0.0000000000000000e+00  2.7081347281523831e-06 -3.2340020202819078e-09 0.0000000000000000e+00  2.7081347410280970e-06 -3.2340064906100953e-09 0.0000000000000000e+00  2.7081347249909580e-06 -3.2340087173987273e-09 0.0000000000000000e+00  2.7081347350892170e-06 -3.2340101262652403e-09 0.0000000000000000e+00  2.7081347484845348e-06 -3.2340097919515004e-09 0.0000000000000000e+00  2.7081347283368059e-06 -3.2340274298066525e-09 0.0000000000000000e+00  2.7081347386496285e-06 -3.2340042898423155e-09 0.0000000000000000e+00  2.7081347418833157e-06 -3.2339992455374979e-09 0.0000000000000000e+00  2.7081347230861232e-06 -3.2340860115810666e-09 0.0000000000000000e+00  2.7081346848804649e-06 -3.2340489906847354e-09 0.0000000000000000e+00  2.7081347234349652e-06 -3.2340368041981066e-09 0.0000000000000000e+00  2.7081347355877874e-06 -3.2340234473694426e-09 0.0000000000000000e+00  2.7081347347471512e-06 -3.2340235183304748e-09 0.0000000000000000e+00  2.7081347381588644e-06 -3.2340074463885204e-09 0.0000000000000000e+00  2.7081347396679112e-06 -3.2340060918405363e-09 0.0000000000000000e+00  2.7081347312952683e-06 -3.2340101569481618e-09 0.0000000000000000e+00  2.7081347354634294e-06 -3.2340061026825580e-09 0.0000000000000000e+00  2.7081347431304192e-06 -3.2340258928958629e-09 0.0000000000000000e+00  2.7081347362940367e-06 -3.2339978544519005e-09 0.0000000000000000e+00  2.7081347760916290e-06 -3.2339638334887705e-09 0.0000000000000000e+00  2.7081347667898248e-06 -3.2340184809645511e-09 0.0000000000000000e+00  2.7081347319524033e-06 -3.2340148065491785e-09 0.0000000000000000e+00  2.7081347520275449e-06 -3.2340047424967225e-09 0.0000000000000000e+00  2.7081347369341496e-06 -3.2340186758498916e-09 0.0000000000000000e+00  2.7081347519270394e-06 -3.2340174611639877e-09 0.0000000000000000e+00  2.7081347300702283e-06 -3.2340164819667956e-09 0.0000000000000000e+00  2.7081347434978011e-06 -3.2340248541217614e-09 0.0000000000000000e+00  2.7081347385480388e-06 7.1079979619528186e-10 0.0000000000000000e+00  4.1704808668354169e-04 -6.7688975669130333e-09 0.0000000000000000e+00  4.1704808668917249e-04 -6.7689097677653409e-09 0.0000000000000000e+00  4.1704808668533312e-04 -6.7689353600323618e-09 0.0000000000000000e+00  4.1704808667067969e-04 -6.7689354754998932e-09 0.0000000000000000e+00  4.1704808668456116e-04 -6.7689194930588281e-09 0.0000000000000000e+00  4.1704808666945107e-04 -6.7689239061953510e-09 0.0000000000000000e+00  4.1704808668317317e-04 -6.7689025723492030e-09 0.0000000000000000e+00  4.1704808668681966e-04 -6.7689211336735555e-09 0.0000000000000000e+00  4.1704808668250487e-04 -6.7689118478072088e-09 0.0000000000000000e+00  4.1704808668480825e-04 -6.7689053144049174e-09 0.0000000000000000e+00  4.1704808669394840e-04 -6.7688983326850277e-09 0.0000000000000000e+00  4.1704808664453545e-04 -6.7689603974047108e-09 0.0000000000000000e+00  4.1704808665543559e-04 -6.7689296481300565e-09 0.0000000000000000e+00  4.1704808668198174e-04 -6.7688992655325769e-09 0.0000000000000000e+00  4.1704808668113595e-04 -6.7689066978468895e-09 0.0000000000000000e+00  4.1704808668675255e-04 -6.7689068536467417e-09 0.0000000000000000e+00  4.1704808667825566e-04 -6.7688974680337952e-09 0.0000000000000000e+00  4.1704808670061906e-04 -6.7689076495595565e-09 0.0000000000000000e+00  4.1704808666654790e-04 -6.7689216393454488e-09 0.0000000000000000e+00  4.1704808669474117e-04 -6.7688979725130660e-09 0.0000000000000000e+00  4.1704808667601169e-04 -6.7689246078909970e-09 0.0000000000000000e+00  4.1704808667765274e-04 -6.7689223230433387e-09 0.0000000000000000e+00  4.1704808673131337e-04 -6.7688429070773479e-09 0.0000000000000000e+00  4.1704808672402417e-04 -6.7688894628270546e-09 0.0000000000000000e+00  4.1704808667950932e-04 -6.7689112523633757e-09 0.0000000000000000e+00  4.1704808668252102e-04 -6.7689274154325227e-09 0.0000000000000000e+00  4.1704808667527194e-04 -6.7689335651356652e-09 0.0000000000000000e+00  4.1704808667605657e-04 -6.7689129998804373e-09 0.0000000000000000e+00  4.1704808670468873e-04 -6.7689085442431893e-09 0.0000000000000000e+00  4.1704808667999082e-04 -6.7689102007956886e-09 0.0000000000000000e+00  4.1704808668354190e-04 3.3920379040891921e-09 0.0000000000000000e+00  7.5927659508133124e-04 -9.2835073950024369e-09 0.0000000000000000e+00  7.5927659508860006e-04 -9.2835080230807554e-09 0.0000000000000000e+00  7.5927659506879787e-04 -9.2835074975679624e-09 0.0000000000000000e+00  7.5927659508219991e-04 -9.2835147214986175e-09 0.0000000000000000e+00  7.5927659505929548e-04 -9.2835257406789773e-09 0.0000000000000000e+00  7.5927659507779219e-04 -9.2835124809948280e-09 0.0000000000000000e+00  7.5927659505966574e-04 -9.2835296234237974e-09 0.0000000000000000e+00  7.5927659508429090e-04 -9.2835136913981334e-09 0.0000000000000000e+00  7.5927659507370703e-04 -9.2835241222903944e-09 0.0000000000000000e+00  7.5927659507360912e-04 -9.2835195150816827e-09 0.0000000000000000e+00  7.5927659507660553e-04 -9.2835099929676826e-09 0.0000000000000000e+00  7.5927659503040985e-04 -9.2835885572928670e-09 0.0000000000000000e+00  7.5927659503407705e-04 -9.2835317945386478e-09 0.0000000000000000e+00  7.5927659506539185e-04 -9.2835448349971178e-09 0.0000000000000000e+00  7.5927659506947636e-04 -9.2835180952105176e-09 0.0000000000000000e+00  7.5927659508487138e-04 -9.2835107605828207e-09 0.0000000000000000e+00  7.5927659507448581e-04 -9.2835239742967979e-09 0.0000000000000000e+00  7.5927659506333707e-04 -9.2835193932173585e-09 0.0000000000000000e+00  7.5927659507433001e-04 -9.2835099690068146e-09 0.0000000000000000e+00  7.5927659507779815e-04 -9.2835372011296213e-09 0.0000000000000000e+00  7.5927659506860737e-04 -9.2835004178361963e-09 0.0000000000000000e+00  7.5927659506626940e-04 -9.2835147139092022e-09 0.0000000000000000e+00  7.5927659512468122e-04 -9.2834372746606122e-09 0.0000000000000000e+00  7.5927659511388712e-04 -9.2835168475106575e-09 0.0000000000000000e+00  7.5927659507905290e-04 -9.2835139438003991e-09 0.0000000000000000e+00  7.5927659506281611e-04 -9.2835213663568922e-09 0.0000000000000000e+00  7.5927659506074452e-04 -9.2835219377314371e-09 0.0000000000000000e+00  7.5927659507570423e-04 -9.2835093054750850e-09 0.0000000000000000e+00  7.5927659507393568e-04 -9.2835281958547969e-09 0.0000000000000000e+00  7.5927659507001705e-04 -9.2835166282849782e-09 0.0000000000000000e+00  7.5927659508133146e-04 5.5690192446099973e-09 0.0000000000000000e+00  9.7021932733994207e-04 -1.0099069442043654e-08 0.0000000000000000e+00  9.7021932734045599e-04 -1.0099071434590406e-08 0.0000000000000000e+00  9.7021932733805231e-04 -1.0099074677655945e-08 0.0000000000000000e+00  9.7021932734132942e-04 -1.0099078211287665e-08 0.0000000000000000e+00  9.7021932732984880e-04 -1.0099079577816084e-08 0.0000000000000000e+00  9.7021932732698261e-04 -1.0099077628420577e-08 0.0000000000000000e+00  9.7021932734457899e-04 -1.0099073831110889e-08 0.0000000000000000e+00  9.7021932733317362e-04 -1.0099103998168976e-08 0.0000000000000000e+00  9.7021932732544976e-04 -1.0099063184462395e-08 0.0000000000000000e+00  9.7021932734572868e-04 -1.0099067042921087e-08 0.0000000000000000e+00  9.7021932733273517e-04 -1.0099097562561721e-08 0.0000000000000000e+00  9.7021932730295452e-04 -1.0099060155635206e-08 0.0000000000000000e+00  9.7021932735700113e-04 -1.0099065007656768e-08 0.0000000000000000e+00  9.7021932734423638e-04 -1.0099093759397340e-08 0.0000000000000000e+00  9.7021932732544000e-04 -1.0099072782470547e-08 0.0000000000000000e+00  9.7021932733500505e-04 -1.0099072531369324e-08 0.0000000000000000e+00  9.7021932734613655e-04 -1.0099082083840985e-08 0.0000000000000000e+00  9.7021932732172965e-04 -1.0099070452086398e-08 0.0000000000000000e+00  9.7021932733773464e-04 -1.0099064428692808e-08 0.0000000000000000e+00  9.7021932734422619e-04 -1.0099065103066560e-08 0.0000000000000000e+00  9.7021932733398265e-04 -1.0099074538878067e-08 0.0000000000000000e+00  9.7021932734876835e-04 -1.0099066673424986e-08 0.0000000000000000e+00  9.7021932736745175e-04 -1.0099086198388230e-08 0.0000000000000000e+00  9.7021932733212866e-04 -1.0099069206771782e-08 0.0000000000000000e+00  9.7021932733635965e-04 -1.0099079035714997e-08 0.0000000000000000e+00  9.7021932732531467e-04 -1.0099083046829355e-08 0.0000000000000000e+00  9.7021932734349045e-04 -1.0099070678467811e-08 0.0000000000000000e+00  9.7021932732411316e-04 -1.0099087408574695e-08 0.0000000000000000e+00  9.7021932733640823e-04 -1.0099060167127749e-08 0.0000000000000000e+00  9.7021932733252722e-04 -1.0099064615826103e-08 0.0000000000000000e+00  9.7021932733994229e-04 6.7922591675749985e-09 0.0000000000000000e+00  1.0134024125838998e-03 -8.9291691864881381e-09 0.0000000000000000e+00  1.0134024125825944e-03 -8.9291705215746933e-09 0.0000000000000000e+00  1.0134024125755129e-03 -8.9291648331995752e-09 0.0000000000000000e+00  1.0134024125868489e-03 -8.9291587122277902e-09 0.0000000000000000e+00  1.0134024125912759e-03 -8.9291564645682664e-09 0.0000000000000000e+00  1.0134024125751213e-03 -8.9291841587780391e-09 0.0000000000000000e+00  1.0134024125692009e-03 -8.9291632737915905e-09 0.0000000000000000e+00  1.0134024125777860e-03 -8.9291594166339416e-09 0.0000000000000000e+00  1.0134024125878394e-03 -8.9291778518655815e-09 0.0000000000000000e+00  1.0134024125798659e-03 -8.9291711125732975e-09 0.0000000000000000e+00  1.0134024125790010e-03 -8.9291761506439526e-09 0.0000000000000000e+00  1.0134024125685013e-03 -8.9291834009207205e-09 0.0000000000000000e+00  1.0134024125657108e-03 -8.9291737836137697e-09 0.0000000000000000e+00  1.0134024125979038e-03 -8.9291741188490814e-09 0.0000000000000000e+00  1.0134024125660682e-03 -8.9291835492395777e-09 0.0000000000000000e+00  1.0134024125922074e-03 -8.9291623616523028e-09 0.0000000000000000e+00  1.0134024125820690e-03 -8.9291833961502309e-09 0.0000000000000000e+00  1.0134024125599281e-03 -8.9291524564896751e-09 0.0000000000000000e+00  1.0134024125966850e-03 -8.9291581119050473e-09 0.0000000000000000e+00  1.0134024125832159e-03 -8.9291521774160360e-09 0.0000000000000000e+00  1.0134024125838786e-03 -8.9291498396593116e-09 0.0000000000000000e+00  1.0134024126003632e-03 -8.9291601180043270e-09 0.0000000000000000e+00  1.0134024125841661e-03 -8.9291698744144166e-09 0.0000000000000000e+00  1.0134024125767315e-03 -8.9291808793917279e-09 0.0000000000000000e+00  1.0134024125780746e-03 -8.9291823146585639e-09 0.0000000000000000e+00  1.0134024125683090e-03 -8.9291694013770087e-09 0.0000000000000000e+00  1.0134024125883585e-03 -8.9291664848731647e-09 0.0000000000000000e+00  1.0134024125896045e-03 -8.9291685010555247e-09 0.0000000000000000e+00  1.0134024125682314e-03 -8.9291726170122321e-09 0.0000000000000000e+00  1.0134024125718747e-03 -8.9291716218230580e-09 0.0000000000000000e+00  1.0134024125839003e-03 6.7837650368781909e-09 0.0000000000000000e+00  8.8135907616254195e-04 -6.0253270271369216e-09 0.0000000000000000e+00  8.8135907615573630e-04 -6.0252990937521497e-09 0.0000000000000000e+00  8.8135907613631336e-04 -6.0253293143698247e-09 0.0000000000000000e+00  8.8135907614907117e-04 -6.0253143304789605e-09 0.0000000000000000e+00  8.8135907615431654e-04 -6.0253069202823722e-09 0.0000000000000000e+00  8.8135907616204549e-04 -6.0253079868120493e-09 0.0000000000000000e+00  8.8135907613978801e-04 -6.0253189032100432e-09 0.0000000000000000e+00  8.8135907616725693e-04 -6.0253235684235712e-09 0.0000000000000000e+00  8.8135907612857118e-04 -6.0253084691735959e-09 0.0000000000000000e+00  8.8135907615325771e-04 -6.0253243333282039e-09 0.0000000000000000e+00  8.8135907616321665e-04 -6.0253202977108775e-09 0.0000000000000000e+00  8.8135907613293076e-04 -6.0253277378314457e-09 0.0000000000000000e+00  8.8135907613382533e-04 -6.0253155275465792e-09 0.0000000000000000e+00  8.8135907615311394e-04 -6.0253008382334453e-09 0.0000000000000000e+00  8.8135907616324126e-04 -6.0253333818626950e-09 0.0000000000000000e+00  8.8135907613555073e-04 -6.0253378672070826e-09 0.0000000000000000e+00  8.8135907616507692e-04 -6.0253267357033777e-09 0.0000000000000000e+00  8.8135907614025118e-04 -6.0253156104880454e-09 0.0000000000000000e+00  8.8135907616604164e-04 -6.0253191428187233e-09 0.0000000000000000e+00  8.8135907614188258e-04 -6.0253432226237136e-09 0.0000000000000000e+00  8.8135907615118352e-04 -6.0253316831347312e-09 0.0000000000000000e+00  8.8135907615174481e-04 -6.0253288892541529e-09 0.0000000000000000e+00  8.8135907615162858e-04 -6.0253102558303559e-09 0.0000000000000000e+00  8.8135907615761132e-04 -6.0252999945073146e-09 0.0000000000000000e+00  8.8135907615003719e-04 -6.0253023672837691e-09 0.0000000000000000e+00  8.8135907615414415e-04 -6.0252979292105963e-09 0.0000000000000000e+00  8.8135907615703821e-04 -6.0253109387693043e-09 0.0000000000000000e+00  8.8135907615111803e-04 -6.0252994610798458e-09 0.0000000000000000e+00  8.8135907616561642e-04 -6.0253273738647764e-09 0.0000000000000000e+00  8.8135907614210419e-04 -6.0253269097178264e-09 0.0000000000000000e+00  8.8135907616254238e-04 5.5291777801564084e-09 0.0000000000000000e+00  5.9692073041992444e-04 -2.1006416253276268e-09 0.0000000000000000e+00  5.9692073039689663e-04 -2.1006522273069907e-09 0.0000000000000000e+00  5.9692073039591511e-04 -2.1006294207348217e-09 0.0000000000000000e+00  5.9692073040719536e-04 -2.1006660782065846e-09 0.0000000000000000e+00  5.9692073038498808e-04 -2.1006498381590834e-09 0.0000000000000000e+00  5.9692073039795384e-04 -2.1006429379711970e-09 0.0000000000000000e+00  5.9692073039520691e-04 -2.1006417657318081e-09 0.0000000000000000e+00  5.9692073039560015e-04 -2.1006448326687036e-09 0.0000000000000000e+00  5.9692073039950371e-04 -2.1006555857858503e-09 0.0000000000000000e+00  5.9692073039074422e-04 -2.1006433540337807e-09 0.0000000000000000e+00  5.9692073040454568e-04 -2.1006472283218239e-09 0.0000000000000000e+00  5.9692073038826823e-04 -2.1006679118092987e-09 0.0000000000000000e+00  5.9692073039699074e-04 -2.1006667010265226e-09 0.0000000000000000e+00  5.9692073038563687e-04 -2.1006511381716983e-09 0.0000000000000000e+00  5.9692073040124602e-04 -2.1006794369326023e-09 0.0000000000000000e+00  5.9692073038215528e-04 -2.1006424948577691e-09 0.0000000000000000e+00  5.9692073039700365e-04 -2.1006388181113618e-09 0.0000000000000000e+00  5.9692073039937328e-04 -2.1006424014537520e-09 0.0000000000000000e+00  5.9692073040285725e-04 -2.1006426067474333e-09 0.0000000000000000e+00  5.9692073039506271e-04 -2.1006354551330632e-09 0.0000000000000000e+00  5.9692073040683335e-04 -2.1006413420798092e-09 0.0000000000000000e+00  5.9692073038533373e-04 -2.1006547275856206e-09 0.0000000000000000e+00  5.9692073041246328e-04 -2.1006421721992026e-09 0.0000000000000000e+00  5.9692073040845434e-04 -2.1006553734448548e-09 0.0000000000000000e+00  5.9692073038869475e-04 -2.1006474629431740e-09 0.0000000000000000e+00  5.9692073038435187e-04 -2.1006593441726812e-09 0.0000000000000000e+00  5.9692073039467500e-04 -2.1006363232537427e-09 0.0000000000000000e+00  5.9692073039792478e-04 -2.1006710585976841e-09 0.0000000000000000e+00  5.9692073039198097e-04 -2.1006513519221566e-09 0.0000000000000000e+00  5.9692073037748432e-04 -2.1006463392218323e-09 0.0000000000000000e+00  5.9692073041992455e-04 3.2898027881107106e-09 0.0000000000000000e+00  2.0926926884090862e-04 1.9329159584897818e-09 0.0000000000000000e+00  2.0926926882924564e-04 1.9329092381574833e-09 0.0000000000000000e+00  2.0926926883022608e-04 1.9329164189233394e-09 0.0000000000000000e+00  2.0926926884089751e-04 1.9329091437370266e-09 0.0000000000000000e+00  2.0926926882542263e-04 1.9329050115443917e-09 0.0000000000000000e+00  2.0926926881543610e-04 1.9329081119018191e-09 0.0000000000000000e+00  2.0926926882797932e-04 1.9329084820619933e-09 0.0000000000000000e+00  2.0926926883870135e-04 1.9329118098714839e-09 0.0000000000000000e+00  2.0926926882646805e-04 1.9329142883983078e-09 0.0000000000000000e+00  2.0926926883296307e-04 1.9329085970958438e-09 0.0000000000000000e+00  2.0926926882232724e-04 1.9329177009517508e-09 0.0000000000000000e+00  2.0926926882239381e-04 1.9329270853856275e-09 0.0000000000000000e+00  2.0926926884332384e-04 1.9329264889524599e-09 0.0000000000000000e+00  2.0926926882372103e-04 1.9329261690450563e-09 0.0000000000000000e+00  2.0926926884144652e-04 1.9329320630797741e-09 0.0000000000000000e+00  2.0926926883221202e-04 1.9329009285203253e-09 0.0000000000000000e+00  2.0926926882532039e-04 1.9329154493484416e-09 0.0000000000000000e+00  2.0926926883591877e-04 1.9329277303639474e-09 0.0000000000000000e+00  2.0926926883640403e-04 1.9329093653886083e-09 0.0000000000000000e+00  2.0926926884104561e-04 1.9328952091234725e-09 0.0000000000000000e+00  2.0926926882272145e-04 1.9329074810045749e-09 0.0000000000000000e+00  2.0926926883134756e-04 1.9329153214803479e-09 0.0000000000000000e+00  2.0926926883168366e-04 1.9329146860836647e-09 0.0000000000000000e+00  2.0926926883139241e-04 1.9329120054073457e-09 0.0000000000000000e+00  2.0926926883197799e-04 1.9329089414249013e-09 0.0000000000000000e+00  2.0926926883879142e-04 1.9328994455079362e-09 0.0000000000000000e+00  2.0926926883080854e-04 1.9329110218597925e-09 0.0000000000000000e+00  2.0926926883077811e-04 1.9329147835940976e-09 0.0000000000000000e+00  2.0926926882031566e-04 1.9329128308375647e-09 0.0000000000000000e+00  2.0926926882056568e-04 1.9329164388591068e-09 0.0000000000000000e+00  2.0926926884090862e-04 5.2774283186084357e-10 0.0000000000000000e+00  -2.1456687657225111e-04 5.2766686056931848e-09 0.0000000000000000e+00  -2.1456687656070533e-04 5.2766778057449296e-09 0.0000000000000000e+00  -2.1456687658375975e-04 5.2766756284501268e-09 0.0000000000000000e+00  -2.1456687656300254e-04 5.2766702561199419e-09 0.0000000000000000e+00  -2.1456687654258268e-04 5.2766804496261373e-09 0.0000000000000000e+00  -2.1456687657784272e-04 5.2766634547570836e-09 0.0000000000000000e+00  -2.1456687657328408e-04 5.2766959823943513e-09 0.0000000000000000e+00  -2.1456687655399846e-04 5.2766627996821309e-09 0.0000000000000000e+00  -2.1456687657177010e-04 5.2766811558754324e-09 0.0000000000000000e+00  -2.1456687655182583e-04 5.2766787536086789e-09 0.0000000000000000e+00  -2.1456687658066777e-04 5.2766706834040181e-09 0.0000000000000000e+00  -2.1456687655464410e-04 5.2766762064383049e-09 0.0000000000000000e+00  -2.1456687656476068e-04 5.2766739872390882e-09 0.0000000000000000e+00  -2.1456687657397065e-04 5.2766464914383131e-09 0.0000000000000000e+00  -2.1456687657356543e-04 5.2766633322964482e-09 0.0000000000000000e+00  -2.1456687656330124e-04 5.2766656351960727e-09 0.0000000000000000e+00  -2.1456687656015765e-04 5.2766556206374458e-09 0.0000000000000000e+00  -2.1456687657352657e-04 5.2766806529682547e-09 0.0000000000000000e+00  -2.1456687655503718e-04 5.2766837086294476e-09 0.0000000000000000e+00  -2.1456687655630602e-04 5.2766736125388174e-09 0.0000000000000000e+00  -2.1456687656731056e-04 5.2766873375625391e-09 0.0000000000000000e+00  -2.1456687656396922e-04 5.2766702129144853e-09 0.0000000000000000e+00  -2.1456687657480863e-04 5.2766663680625311e-09 0.0000000000000000e+00  -2.1456687656285704e-04 5.2766720885300336e-09 0.0000000000000000e+00  -2.1456687657419530e-04 5.2766861842966882e-09 0.0000000000000000e+00  -2.1456687656274472e-04 5.2766779640384467e-09 0.0000000000000000e+00  -2.1456687656700861e-04 5.2766572760515329e-09 0.0000000000000000e+00  -2.1456687655878602e-04 5.2766782792160183e-09 0.0000000000000000e+00  -2.1456687654571591e-04 5.2766830084516846e-09 0.0000000000000000e+00  -2.1456687656887870e-04 5.2766732089445587e-09 0.0000000000000000e+00  -2.1456687657225127e-04 -2.2232182306663894e-09 0.0000000000000000e+00  -6.0130254177054939e-04 7.4500295965977334e-09 0.0000000000000000e+00  -6.0130254176857896e-04 7.4500339413210992e-09 0.00