<?xml version="1.0"?>
<VTKFile type="UnstructuredGrid"  version="0.1"  >
<UnstructuredGrid>
<Piece  NumberOfPoints="961" NumberOfCells="1800">
<Points>
<DataArray  type="Float64"  NumberOfComponents="3"  format="ascii">0 0 0  0.03333333333333333 0 0  0.06666666666666667 0 0  0.1 0 0  0.1333333333333333 0 0  0.1666666666666667 0 0  0.2 0 0  0.2333333333333333 0 0  0.2666666666666667 0 0  0.3 0 0  0.3333333333333333 0 0  0.3666666666666666 0 0  0.4 0 0  0.4333333333333333 0 0  0.4666666666666667 0 0  0.5 0 0  0.5333333333333333 0 0  0.5666666666666667 0 0  0.6 0 0  0.6333333333333333 0 0  0.6666666666666666 0 0  0.7 0 0  0.7333333333333333 0 0  0.7666666666666667 0 0  0.8 0 0  0.8333333333333334 0 0  0.8666666666666667 0 0  0.9 0 0  0.9333333333333333 0 0  0.9666666666666667 0 0  1 0 0  0 0.03333333333333333 0  0.03333333333333333 0.03333333333333333 0  0.06666666666666667 0.03333333333333333 0  0.1 0.03333333333333333 0  0.1333333333333333 0.03333333333333333 0  0.1666666666666667 0.03333333333333333 0  0.2 0.03333333333333333 0  0.2333333333333333 0.03333333333333333 0  0.2666666666666667 0.03333333333333333 0  0.3 0.03333333333333333 0  0.3333333333333333 0.03333333333333333 0  0.3666666666666666 0.03333333333333333 0  0.4 0.03333333333333333 0  0.4333333333333333 0.03333333333333333 0  0.4666666666666667 0.03333333333333333 0  0.5 0.03333333333333333 0  0.5333333333333333 0.03333333333333333 0  0.5666666666666667 0.03333333333333333 0  0.6 0.03333333333333333 0  0.6333333333333333 0.03333333333333333 0  0.6666666666666666 0.03333333333333333 0  0.7 0.03333333333333333 0  0.7333333333333333 0.03333333333333333 0  0.7666666666666667 0.03333333333333333 0  0.8 0.03333333333333333 0  0.8333333333333334 0.03333333333333333 0  0.8666666666666667 0.03333333333333333 0  0.9 0.03333333333333333 0  0.9333333333333333 0.03333333333333333 0  0.9666666666666667 0.03333333333333333 0  1 0.03333333333333333 0  0 0.06666666666666667 0  0.03333333333333333 0.06666666666666667 0  0.06666666666666667 0.06666666666666667 0  0.1 0.06666666666666667 0  0.1333333333333333 0.06666666666666667 0  0.1666666666666667 0.06666666666666667 0  0.2 0.06666666666666667 0  0.2333333333333333 0.06666666666666667 0  0.2666666666666667 0.06666666666666667 0  0.3 0.06666666666666667 0  0.3333333333333333 0.06666666666666667 0  0.3666666666666666 0.06666666666666667 0  0.4 0.06666666666666667 0  0.4333333333333333 0.06666666666666667 0  0.4666666666666667 0.06666666666666667 0  0.5 0.06666666666666667 0  0.5333333333333333 0.06666666666666667 0  0.5666666666666667 0.06666666666666667 0  0.6 0.06666666666666667 0  0.6333333333333333 0.06666666666666667 0  0.6666666666666666 0.06666666666666667 0  0.7 0.06666666666666667 0  0.7333333333333333 0.06666666666666667 0  0.7666666666666667 0.06666666666666667 0  0.8 0.06666666666666667 0  0.8333333333333334 0.06666666666666667 0  0.8666666666666667 0.06666666666666667 0  0.9 0.06666666666666667 0  0.9333333333333333 0.06666666666666667 0  0.9666666666666667 0.06666666666666667 0  1 0.06666666666666667 0  0 0.1 0  0.03333333333333333 0.1 0  0.06666666666666667 0.1 0  0.1 0.1 0  0.1333333333333333 0.1 0  0.1666666666666667 0.1 0  0.2 0.1 0  0.2333333333333333 0.1 0  0.2666666666666667 0.1 0  0.3 0.1 0  0.3333333333333333 0.1 0  0.3666666666666666 0.1 0  0.4 0.1 0  0.4333333333333333 0.1 0  0.4666666666666667 0.1 0  0.5 0.1 0  0.5333333333333333 0.1 0  0.5666666666666667 0.1 0  0.6 0.1 0  0.6333333333333333 0.1 0  0.6666666666666666 0.1 0  0.7 0.1 0  0.7333333333333333 0.1 0  0.7666666666666667 0.1 0  0.8 0.1 0  0.8333333333333334 0.1 0  0.8666666666666667 0.1 0  0.9 0.1 0  0.9333333333333333 0.1 0  0.9666666666666667 0.1 0  1 0.1 0  0 0.1333333333333333 0  0.03333333333333333 0.1333333333333333 0  0.06666666666666667 0.1333333333333333 0  0.1 0.1333333333333333 0  0.1333333333333333 0.1333333333333333 0  0.1666666666666667 0.1333333333333333 0  0.2 0.1333333333333333 0  0.2333333333333333 0.1333333333333333 0  0.2666666666666667 0.1333333333333333 0  0.3 0.1333333333333333 0  0.3333333333333333 0.1333333333333333 0  0.3666666666666666 0.1333333333333333 0  0.4 0.1333333333333333 0  0.4333333333333333 0.1333333333333333 0  0.4666666666666667 0.1333333333333333 0  0.5 0.1333333333333333 0  0.5333333333333333 0.1333333333333333 0  0.5666666666666667 0.1333333333333333 0  0.6 0.1333333333333333 0  0.6333333333333333 0.1333333333333333 0  0.6666666666666666 0.1333333333333333 0  0.7 0.1333333333333333 0  0.7333333333333333 0.1333333333333333 0  0.7666666666666667 0.1333333333333333 0  0.8 0.1333333333333333 0  0.8333333333333334 0.1333333333333333 0  0.8666666666666667 0.1333333333333333 0  0.9 0.1333333333333333 0  0.9333333333333333 0.1333333333333333 0  0.9666666666666667 0.1333333333333333 0  1 0.1333333333333333 0  0 0.1666666666666667 0  0.03333333333333333 0.1666666666666667 0  0.06666666666666667 0.1666666666666667 0  0.1 0.1666666666666667 0  0.1333333333333333 0.1666666666666667 0  0.1666666666666667 0.1666666666666667 0  0.2 0.1666666666666667 0  0.2333333333333333 0.1666666666666667 0  0.2666666666666667 0.1666666666666667 0  0.3 0.1666666666666667 0  0.3333333333333333 0.1666666666666667 0  0.3666666666666666 0.1666666666666667 0  0.4 0.1666666666666667 0  0.4333333333333333 0.1666666666666667 0  0.4666666666666667 0.1666666666666667 0  0.5 0.1666666666666667 0  0.5333333333333333 0.1666666666666667 0  0.5666666666666667 0.1666666666666667 0  0.6 0.1666666666666667 0  0.6333333333333333 0.1666666666666667 0  0.6666666666666666 0.1666666666666667 0  0.7 0.1666666666666667 0  0.7333333333333333 0.1666666666666667 0  0.7666666666666667 0.1666666666666667 0  0.8 0.1666666666666667 0  0.8333333333333334 0.1666666666666667 0  0.8666666666666667 0.1666666666666667 0  0.9 0.1666666666666667 0  0.9333333333333333 0.1666666666666667 0  0.9666666666666667 0.1666666666666667 0  1 0.1666666666666667 0  0 0.2 0  0.03333333333333333 0.2 0  0.06666666666666667 0.2 0  0.1 0.2 0  0.1333333333333333 0.2 0  0.1666666666666667 0.2 0  0.2 0.2 0  0.2333333333333333 0.2 0  0.2666666666666667 0.2 0  0.3 0.2 0  0.3333333333333333 0.2 0  0.3666666666666666 0.2 0  0.4 0.2 0  0.4333333333333333 0.2 0  0.4666666666666667 0.2 0  0.5 0.2 0  0.5333333333333333 0.2 0  0.5666666666666667 0.2 0  0.6 0.2 0  0.6333333333333333 0.2 0  0.6666666666666666 0.2 0  0.7 0.2 0  0.7333333333333333 0.2 0  0.7666666666666667 0.2 0  0.8 0.2 0  0.8333333333333334 0.2 0  0.8666666666666667 0.2 0  0.9 0.2 0  0.9333333333333333 0.2 0  0.9666666666666667 0.2 0  1 0.2 0  0 0.2333333333333333 0  0.03333333333333333 0.2333333333333333 0  0.06666666666666667 0.2333333333333333 0  0.1 0.2333333333333333 0  0.1333333333333333 0.2333333333333333 0  0.1666666666666667 0.2333333333333333 0  0.2 0.2333333333333333 0  0.2333333333333333 0.2333333333333333 0  0.2666666666666667 0.2333333333333333 0  0.3 0.2333333333333333 0  0.3333333333333333 0.2333333333333333 0  0.3666666666666666 0.2333333333333333 0  0.4 0.2333333333333333 0  0.4333333333333333 0.2333333333333333 0  0.4666666666666667 0.2333333333333333 0  0.5 0.2333333333333333 0  0.5333333333333333 0.2333333333333333 0  0.5666666666666667 0.2333333333333333 0  0.6 0.2333333333333333 0  0.6333333333333333 0.2333333333333333 0  0.6666666666666666 0.2333333333333333 0  0.7 0.2333333333333333 0  0.7333333333333333 0.2333333333333333 0  0.7666666666666667 0.2333333333333333 0  0.8 0.2333333333333333 0  0.8333333333333334 0.2333333333333333 0  0.8666666666666667 0.2333333333333333 0  0.9 0.2333333333333333 0  0.9333333333333333 0.2333333333333333 0  0.9666666666666667 0.2333333333333333 0  1 0.2333333333333333 0  0 0.2666666666666667 0  0.03333333333333333 0.2666666666666667 0  0.06666666666666667 0.2666666666666667 0  0.1 0.2666666666666667 0  0.1333333333333333 0.2666666666666667 0  0.1666666666666667 0.2666666666666667 0  0.2 0.2666666666666667 0  0.2333333333333333 0.2666666666666667 0  0.2666666666666667 0.2666666666666667 0  0.3 0.2666666666666667 0  0.3333333333333333 0.2666666666666667 0  0.3666666666666666 0.2666666666666667 0  0.4 0.2666666666666667 0  0.4333333333333333 0.2666666666666667 0  0.4666666666666667 0.2666666666666667 0  0.5 0.2666666666666667 0  0.5333333333333333 0.2666666666666667 0  0.5666666666666667 0.2666666666666667 0  0.6 0.2666666666666667 0  0.6333333333333333 0.2666666666666667 0  0.6666666666666666 0.2666666666666667 0  0.7 0.2666666666666667 0  0.7333333333333333 0.2666666666666667 0  0.7666666666666667 0.2666666666666667 0  0.8 0.2666666666666667 0  0.8333333333333334 0.2666666666666667 0  0.8666666666666667 0.2666666666666667 0  0.9 0.2666666666666667 0  0.9333333333333333 0.2666666666666667 0  0.9666666666666667 0.2666666666666667 0  1 0.2666666666666667 0  0 0.3 0  0.03333333333333333 0.3 0  0.06666666666666667 0.3 0  0.1 0.3 0  0.1333333333333333 0.3 0  0.1666666666666667 0.3 0  0.2 0.3 0  0.2333333333333333 0.3 0  0.2666666666666667 0.3 0  0.3 0.3 0  0.3333333333333333 0.3 0  0.3666666666666666 0.3 0  0.4 0.3 0  0.4333333333333333 0.3 0  0.4666666666666667 0.3 0  0.5 0.3 0  0.5333333333333333 0.3 0  0.5666666666666667 0.3 0  0.6 0.3 0  0.6333333333333333 0.3 0  0.6666666666666666 0.3 0  0.7 0.3 0  0.7333333333333333 0.3 0  0.7666666666666667 0.3 0  0.8 0.3 0  0.8333333333333334 0.3 0  0.8666666666666667 0.3 0  0.9 0.3 0  0.9333333333333333 0.3 0  0.9666666666666667 0.3 0  1 0.3 0  0 0.3333333333333333 0  0.03333333333333333 0.3333333333333333 0  0.06666666666666667 0.3333333333333333 0  0.1 0.3333333333333333 0  0.1333333333333333 0.3333333333333333 0  0.1666666666666667 0.3333333333333333 0  0.2 0.3333333333333333 0  0.2333333333333333 0.3333333333333333 0  0.2666666666666667 0.3333333333333333 0  0.3 0.3333333333333333 0  0.3333333333333333 0.3333333333333333 0  0.3666666666666666 0.3333333333333333 0  0.4 0.3333333333333333 0  0.4333333333333333 0.3333333333333333 0  0.4666666666666667 0.3333333333333333 0  0.5 0.3333333333333333 0  0.5333333333333333 0.33333333333333
[...]
<PointData  Scalars="q_f"> 
<DataArray  type="Float64"  Name="q_f"  format="ascii">9.9873977896766786e-01  9.9873977896768684e-01  9.9873977896761224e-01  9.9873977896763877e-01  9.9873977896767352e-01  9.9873977896772470e-01  9.9873977896764032e-01  9.9873977896761246e-01  9.9873977896765997e-01  9.9873977896766830e-01  9.9873977896766053e-01  9.9873977896767685e-01  9.9873977896826971e-01  9.9873977896768940e-01  9.9873977896762700e-01  9.9873977896766775e-01  9.9873977896764388e-01  9.9873977896761212e-01  9.9873977896763910e-01  9.9873977896766253e-01  9.9873977896770227e-01  9.9873977896766286e-01  9.9873977896757304e-01  9.9873977896702015e-01  9.9873977896754862e-01  9.9873977896761013e-01  9.9873977896767385e-01  9.9873977896759014e-01  9.9873977896765964e-01  9.9873977896761912e-01  9.9873977896766786e-01  9.9884873013490116e-01  9.9884873013485609e-01  9.9884873013490350e-01  9.9884873013484865e-01  9.9884873013486952e-01  9.9884873013485420e-01  9.9884873013485997e-01  9.9884873013484710e-01  9.9884873013492670e-01  9.9884873013491615e-01  9.9884873013495623e-01  9.9884873013557096e-01  9.9884873013545183e-01  9.9884873013489417e-01  9.9884873013492026e-01  9.9884873013491726e-01  9.9884873013484887e-01  9.9884873013487729e-01  9.9884873013487518e-01  9.9884873013489295e-01  9.9884873013488285e-01  9.9884873013484321e-01  9.9884873013419573e-01  9.9884873013428133e-01  9.9884873013491449e-01  9.9884873013488007e-01  9.9884873013489939e-01  9.9884873013490860e-01  9.9884873013486553e-01  9.9884873013484243e-01  9.9884873013490116e-01  9.9915674571279789e-01  9.9915674571282298e-01  9.9915674571283275e-01  9.9915674571276336e-01  9.9915674571281676e-01  9.9915674571282753e-01  9.9915674571270685e-01  9.9915674571273860e-01  9.9915674571274293e-01  9.9915674571279878e-01  9.9915674571282542e-01  9.9915674571352586e-01  9.9915674571327373e-01  9.9915674571279856e-01  9.9915674571280078e-01  9.9915674571275714e-01  9.9915674571276569e-01  9.9915674571281377e-01  9.9915674571279833e-01  9.9915674571272783e-01  9.9915674571269852e-01  9.9915674571273527e-01  9.9915674571211044e-01  9.9915674571221946e-01  9.9915674571268920e-01  9.9915674571280177e-01  9.9915674571279145e-01  9.9915674571276181e-01  9.9915674571276825e-01  9.9915674571278712e-01  9.9915674571279789e-01  9.9961056869820042e-01  9.9961056869821074e-01  9.9961056869819442e-01  9.9961056869814158e-01  9.9961056869820841e-01  9.9961056869820841e-01  9.9961056869815246e-01  9.9961056869823850e-01  9.9961056869815867e-01  9.9961056869827847e-01  9.9961056869827902e-01  9.9961056869882559e-01  9.9961056869818365e-01  9.9961056869820819e-01  9.9961056869818754e-01  9.9961056869815978e-01  9.9961056869819787e-01  9.9961056869823761e-01  9.9961056869814868e-01  9.9961056869819243e-01  9.9961056869822085e-01  9.9961056869808096e-01  9.9961056869753984e-01  9.9961056869820197e-01  9.9961056869819553e-01  9.9961056869819753e-01  9.9961056869823284e-01  9.9961056869817699e-01  9.9961056869822340e-01  9.9961056869827913e-01  9.9961056869820042e-01  1.0001317305081325e+00  1.0001317305081134e+00  1.0001317305081725e+00  1.0001317305080697e+00  1.0001317305080590e+00  1.0001317305080799e+00  1.0001317305080644e+00  1.0001317305081279e+00  1.0001317305080508e+00  1.0001317305080870e+00  1.0001317305081483e+00  1.0001317305081570e+00  1.0001317305081066e+00  1.0001317305081161e+00  1.0001317305080428e+00  1.0001317305080879e+00  1.0001317305081079e+00  1.0001317305080817e+00  1.0001317305081128e+00  1.0001317305080870e+00  1.0001317305080590e+00  1.0001317305080346e+00  1.0001317305079793e+00  1.0001317305081268e+00  1.0001317305080839e+00  1.0001317305080792e+00  1.0001317305080581e+00  1.0001317305080761e+00  1.0001317305081079e+00  1.0001317305081436e+00  1.0001317305081325e+00  1.0006301178956032e+00  1.0006301178955213e+00  1.0006301178955537e+00  1.0006301178956065e+00  1.0006301178955996e+00  1.0006301178955581e+00  1.0006301178955763e+00  1.0006301178955894e+00  1.0006301178956167e+00  1.0006301178956034e+00  1.0006301178955843e+00  1.0006301178955783e+00  1.0006301178955934e+00  1.0006301178955683e+00  1.0006301178955610e+00  1.0006301178956103e+00  1.0006301178955810e+00  1.0006301178955728e+00  1.0006301178955672e+00  1.0006301178955470e+00  1.0006301178956232e+00  1.0006301178955004e+00  1.0006301178956087e+00  1.0006301178955335e+00  1.0006301178955987e+00  1.0006301178955481e+00  1.0006301178955723e+00  1.0006301178956010e+00  1.0006301178955310e+00  1.0006301178956152e+00  1.0006301178956032e+00  1.0010195541099087e+00  1.0010195541098661e+00  1.0010195541098581e+00  1.0010195541098597e+00  1.0010195541098821e+00  1.0010195541099487e+00  1.0010195541099061e+00  1.0010195541099456e+00  1.0010195541099152e+00  1.0010195541099554e+00  1.0010195541098907e+00  1.0010195541099640e+00  1.0010195541098668e+00  1.0010195541099198e+00  1.0010195541099471e+00  1.0010195541098001e+00  1.0010195541098350e+00  1.0010195541098612e+00  1.0010195541098574e+00  1.0010195541098714e+00  1.0010195541098614e+00  1.0010195541098850e+00  1.0010195541099010e+00  1.0010195541098761e+00  1.0010195541099165e+00  1.0010195541099440e+00  1.0010195541098914e+00  1.0010195541098967e+00  1.0010195541099280e+00  1.0010195541098845e+00  1.0010195541099087e+00  1.0012327003326258e+00  1.0012327003325849e+00  1.0012327003325667e+00  1.0012327003326007e+00  1.0012327003325350e+00  1.0012327003326262e+00  1.0012327003326134e+00  1.0012327003325456e+00  1.0012327003325372e+00  1.0012327003325348e+00  1.0012327003325789e+00  1.0012327003326280e+00  1.0012327003326302e+00  1.0012327003325505e+00  1.0012327003324741e+00  1.0012327003325485e+00  1.0012327003325467e+00  1.0012327003324715e+00  1.0012327003325465e+00  1.0012327003324832e+00  1.0012327003325701e+00  1.0012327003326185e+00  1.0012327003325561e+00  1.0012327003325832e+00  1.0012327003325572e+00  1.0012327003325414e+00  1.0012327003324688e+00  1.0012327003326791e+00  1.0012327003324839e+00  1.0012327003325519e+00  1.0012327003326258e+00  1.0012327003326036e+00  1.0012327003326331e+00  1.0012327003325165e+00  1.0012327003325647e+00  1.0012327003325374e+00  1.0012327003326229e+00  1.0012327003326180e+00  1.0012327003326000e+00  1.0012327003326358e+00  1.0012327003325787e+00  1.0012327003326262e+00  1.0012327003325583e+00  1.0012327003325925e+00  1.0012327003325734e+00  1.0012327003326236e+00  1.0012327003326491e+00  1.0012327003325983e+00  1.0012327003325827e+00  1.0012327003326138e+00  1.0012327003326185e+00  1.0012327003325641e+00  1.0012327003326649e+00  1.0012327003326493e+00  1.0012327003325991e+00  1.0012327003325667e+00  1.0012327003325876e+00  1.0012327003326205e+00  1.0012327003326214e+00  1.0012327003325807e+00  1.0012327003325980e+00  1.0012327003326036e+00  1.0010195541099327e+00  1.0010195541099833e+00  1.0010195541099123e+00  1.0010195541099789e+00  1.0010195541099920e+00  1.0010195541098637e+00  1.0010195541099747e+00  1.0010195541099443e+00  1.0010195541100211e+00  1.0010195541099505e+00  1.0010195541100131e+00  1.0010195541099787e+00  1.0010195541100197e+00  1.0010195541099229e+00  1.0010195541100633e+00  1.0010195541099669e+00  1.0010195541100284e+00  1.0010195541099727e+00  1.0010195541099494e+00  1.0010195541100264e+00  1.0010195541099842e+00  1.0010195541100073e+00  1.0010195541099669e+00  1.0010195541099969e+00  1.0010195541099998e+00  1.0010195541099554e+00  1.0010195541100269e+00  1.0010195541100013e+00  1.0010195541099569e+00  1.0010195541100222e+00  1.0010195541099327e+00  1.0006301178955732e+00  1.0006301178955295e+00  1.0006301178955201e+00  1.0006301178954737e+00  1.0006301178955410e+00  1.0006301178955497e+00  1.0006301178955597e+00  1.0006301178955876e+00  1.0006301178955403e+00  1.0006301178955974e+00  1.0006301178955834e+00  1.0006301178955499e+00  1.0006301178955890e+00  1.0006301178955721e+00  1.0006301178955999e+00  1.0006301178955708e+00  1.0006301178955748e+00  1.0006301178956614e+00  1.0006301178955512e+00  1.0006301178955135e+00  1.0006301178955570e+00  1.0006301178954788e+00  1.0006301178955987e+00  1.0006301178955965e+00  1.0006301178956174e+00  1.0006301178955914e+00  1.0006301178955443e+00  1.0006301178955588e+00  1.0006301178955366e+00  1.0006301178955039e+00  1.0006301178955732e+00  1.0001317305081601e+00  1.0001317305075441e+00  1.0001317305074413e+00  1.0001317305075177e+00  1.0001317305081543e+00  1.0001317305081621e+00  1.0001317305082473e+00  1.0001317305081980e+00  1.0001317305082802e+00  1.0001317305082218e+00  1.0001317305082886e+00  1.0001317305082118e+00  1.0001317305082622e+00  1.0001317305081736e+00  1.0001317305082025e+00  1.0001317305082840e+00  1.0001317305082376e+00  1.0001317305081845e+00  1.0001317305082211e+00  1.0001317305082669e+00  1.0001317305082105e+00  1.0001317305082587e+00  1.0001317305082023e+00  1.0001317305081809e+00  1.0001317305082906e+00  1.0001317305082482e+00  1.0001317305082547e+00  1.0001317305082469e+00  1.0001317305081965e+00  1.0001317305082831e+00  1.0001317305081601e+00  9.9961056869750953e-01  9.9961056869759035e-01  9.9961056869760045e-01  9.9961056869822573e-01  9.9961056869827070e-01  9.9961056869819631e-01  9.9961056869819265e-01  9.9961056869821241e-01  9.9961056869819453e-01  9.9961056869818166e-01  9.9961056869816967e-01  9.9961056869810783e-01  9.9961056869817666e-01  9.9961056869822740e-01  9.9961056869818543e-01  9.9961056869821052e-01  9.9961056869817022e-01  9.9961056869817655e-01  9.9961056869818532e-01  9.9961056869819775e-01  9.9961056869824860e-01  9.9961056869823439e-01  9.9961056869819498e-01  9.9961056869821741e-01  9.9961056869820064e-01  9.9961056869820886e-01  9.9961056869815668e-01  9.9961056869817411e-01  9.9961056869816445e-01  9.9961056869815590e-01  9.9961056869750953e-01  9.9915674571273594e-01  9.9915674571276414e-01  9.9915674571278779e-01  9.9915674571280222e-01  9.9915674571284729e-01  9.9915674571284163e-01  9.9915674571288615e-01  9.9915674571285851e-01  9.9915674571285296e-01  9.9915674571282154e-01  9.9915674571279045e-01  9.9915674571287938e-01  9.9915674571285473e-01  9.9915674571289081e-01  9.9915674571282331e-01  9.9915674571280977e-01  9.9915674571286206e-01  9.9915674571290292e-01  9.9915674571281199e-01  9.9915674571285973e-01  9.9915674571285629e-01  9.9915674571284441e-01  9.9915674571282265e-01  9.9915674571287749e-01  9.9915674571290602e-01  9.9915674571287338e-01  9.9915674571287638e-01  9.9915674571284452e-01  9.9915674571283530e-01  9.9915674571286994e-01  9.9915674571273594e-01  9.9884873013494035e-01  9.9884873013490916e-01  9.9884873013490316e-01  9.9884873013487929e-01  9.9884873013493647e-01  9.9884873013497610e-01  9.9884873013496145e-01  9.9884873013493647e-01  9.9884873013497433e-01  9.9884873013497577e-01  9.9884873013493491e-01  9.9884873013489128e-01  9.9884873013493680e-01  9.9884873013491571e-01  9.9884873013493769e-01  9.9884873013493769e-01  9.9884873013496633e-01  9.9884873013495601e-01  9.9884873013483910e-01  9.9884873013495357e-01  9.9884873013487596e-01  9.9884873013494602e-01  9.9884873013488751e-01  9.9884873013487230e-01  9.9884873013495012e-01  9.9884873013490527e-01  9.9884873013490971e-01  9.9884873013493936e-01  9.9884873013489373e-01  9.9884873013494135e-01  9.9884873013494035e-01  9.9873977896760457e-01  9.9873977896765975e-01  9.9873977896763122e-01  9.9873977896763289e-01  9.9873977896760502e-01  9.9873977896766764e-01  9.9873977896764232e-01  9.9873977896761390e-01  9.9873977896770461e-01  9.9873977896762223e-01  9.9873977896764410e-01  9.9873977896762645e-01  9.9873977896771615e-01  9.9873977896763666e-01  9.9873977896760580e-01  9.9873977896765376e-01  9.9873977896760935e-01  9.9873977896766963e-01  9.9873977896760258e-01  9.9873977896761978e-01  9.9873977896764587e-01  9.9873977896759680e-01  9.9873977896759003e-01  9.9873977896766808e-01  9.9873977896769250e-01  9.9873977896763433e-01  9.9873977896760124e-01  9.9873977896759258e-01  9.9873977896761634e-01  9.9873977896758559e-01  9.9873977896760457e-01  9.9884873013484343e-01  9.9884873013488729e-01  9.9884873013486930e-01  9.9884873013481179e-01  9.9884873013480513e-01  9.9884873013488518e-01  9.9884873013484410e-01  9.9884873013482856e-01  9.9884873013480324e-01  9.9884873013479414e-01  9.9884873013481057e-01  9.9884873013479847e-01  9.9884873013481823e-01  9.9884873013483855e-01  9.9884873013485631e-01  9.9884873013488029e-01  9.9884873013479525e-01  9.9884873013483677e-01  9.9884873013474051e-01  9.9884873013477449e-01  9.9884873013480935e-01  9.9884873013480358e-01  9.9884873013485820e-01  9.9884873013483477e-01  9.9884873013478459e-01  9.9884873013483577e-01  9.9884873013478925e-01  9.9884873013480746e-01  9.9884873013478503e-01  9.9884873013481545e-01  9.9884873013484343e-01  9.9915674571281277e-01  9.9915674571276492e-01  9.9915674571275948e-01  9.9915674571276825e-01  9.9915674571283630e-01  9.9915674571274604e-01  9.9915674571281532e-01  9.9915674571282298e-01  9.9915674571280089e-01  9.9915674571278645e-01  9.9915674571279167e-01  9.9915674571279767e-01  9.9915674571279911e-01  9.9915674571282320e-01  9.9915674571277868e-01  9.9915674571275859e-01  9.9915674571279856e-01  9.9915674571275492e-01  9.9915674571275714e-01  9.9915674571273627e-01  9.9915674571281099e-01  9.9915674571282087e-01  9.9915674571273250e-01  9.9915674571281665e-01  9.9915674571279744e-01  9.9915674571274682e-01  9.9915674571276081e-01  9.9915674571276769e-01  9.9915674571275226e-01  9.9915674571282287e-01  9.9915674571281277e-01  9.9961056869821374e-01  9.9961056869824116e-01  9.9961056869815590e-01  9.9961056869827924e-01  9.9961056869821818e-01  9.9961056869823139e-01  9.9961056869823084e-01  9.9961056869822906e-01  9.9961056869824416e-01  9.9961056869816345e-01  9.9961056869817788e-01  9.9961056869819032e-01  9.9961056869822651e-01  9.9961056869815879e-01  9.9961056869827847e-01  9.9961056869821874e-01  9.9961056869813725e-01  9.9961056869820841e-01  9.9961056869822928e-01  9.9961056869817699e-01  9.9961056869827614e-01  9.9961056869821285e-01  9.9961056869823683e-01  9.9961056869817622e-01  9.9961056869820719e-01  9.9961056869819431e-01  9.9961056869822473e-01  9.9961056869818443e-01  9.9961056869821896e-01  9.9961056869824061e-01  9.9961056869821374e-01  1.0001317305081647e+00  1.0001317305081856e+00  1.0001317305080588e+00  1.0001317305081048e+00  1.0001317305080422e+00  1.0001317305080843e+00  1.0001317305081696e+00  1.0001317305081250e+00  1.0001317305081083e+00  1.0001317305081028e+00  1.0001317305081383e+00  1.0001317305081217e+00  1.0001317305080941e+00  1.0001317305080617e+00  1.0001317305080799e+00  1.0001317305081148e+00  1.0001317305080857e+00  1.0001317305080641e+00  1.0001317305080595e+00  1.0001317305079978e+00  1.0001317305080841e+00  1.0001317305080522e+00  1.0001317305080959e+00  1.0001317305080364e+00  1.0001317305080502e+00  1.0001317305081019e+00  1.0001317305080339e+00  1.0001317305080843e+00  1.0001317305081114e+00  1.0001317305080326e+00  1.0001317305081647e+00  1.0006301178955945e+00  1.0006301178955641e+00  1.0006301178956156e+00  1.0006301178956261e+00  1.0006301178956154e+00  1.0006301178955697e+00  1.0006301178955483e+00  1.0006301178956030e+00  1.0006301178955626e+00  1.0006301178955717e+00  1.0006301178955908e+00  1.0006301178955403e+00  1.0006301178955415e+00  1.0006301178956101e+00  1.0006301178955725e+00  1.0006301178956170e+00  1.0006301178955808e+00  1.0006301178955033e+00  1.0006301178955819e+00  1.0006301178955490e+00  1.0006301178956365e+00  1.0006301178955344e+00  1.0006301178955495e+00  1.0006301178955774e+00  1.0006301178955088e+00  1.0006301178955885e+00  1.0006301178955392e+00  1.0006301178955879e+00  1.0006301178955765e+00  1.0006301178956192e+00  1.0006301178955945e+00  1.0010195541098994e+00  1.0010195541099884e+00  1.0010195541099036e+00  1.0010195541099511e+00  1.0010195541098625e+00  1.0010195541099249e+00  1.0010195541098843e+00  1.0010195541099227e+00  1.0010195541099127e+00  1.0010195541098732e+00  1.0010195541099318e+00  1.0010195541099096e+00  1.0010195541099354e+00  1.0010195541099036e+00  1.0010195541098938e+00  1.0010195541099030e+00  1.0010195541098552e+00  1.0010195541098483e+00  1.0010195541098705e+00  1.0010195541098648e+00  1.0010195541098401e+00  1.0010195541098961e+00  1.0010195541099196e+00  1.0010195541098488e+00  1.0010195541098921e+00  1.0010195541098446e+00  1.0010195541098386e+00  1.0010195541098945e+00  1.0010195541098568e+00  1.0010195541099556e+00  1.0010195541098994e+00  1.0012327003326216e+00  1.0012327003330697e+00  1.0012327003333408e+00  1.0012327003331516e+00  1.0012327003326253e+00  1.0012327003325838e+00  1.0012327003326278e+00  1.0012327003326060e+00  1.0012327003326338e+00  1.0012327003326231e+00  1.0012327003325097e+00  1.0012327003325054e+00  1.0012327003325372e+00  1.0012327003325825e+00  1.0012327003326047e+00  1.0012327003325405e+00  1.0012327003326174e+00  1.0012327003325903e+00  1.0012327003325687e+00  1.0012327003326038e+00  1.0012327003326094e+00  1.0012327003325432e+00  1.0012327003325816e+00  1.0012327003326285e+00  1.0012327003325954e+00  1.0012327003325820e+00  1.0012327003325896e+00  1.0012327003325787e+00  1.0012327003325707e+00  1.0012327003324575e+00  1.0012327003326216e+00  1.0012327003332391e+00  1.0012327003332404e+00  1.0012327003331309e+00  1.0012327003325137e+00  1.0012327003326229e+00  1.0012327003325083e+00  1.0012327003326169e+00  1.0012327003325587e+00  1.0012327003326311e+00  1.0012327003326178e+00  1.0012327003326285e+00  1.0012327003326511e+00  1.0012327003326462e+00  1.0012327003325856e+00  1.0012327003325892e+00  1.0012327003326094e+00  1.0012327003325843e+00  1.0012327003326369e+00  1.0012327003325932e+00  1.0012327003326247e+00  1.0012327003326071e+00  1.0012327003327031e+00  1.0012327003326618e+00  1.0012327003326256e+00  1.0012327003326689e+00  1.0012327003326305e+00  1.0012327003326300e+00  1.0012327003326023e+00  1.0012327003325738e+00  1.0012327003326651e+00  1.0012327003332391e+00  1.0010195541100229e+00  1.0010195541100404e+00  1.0010195541099642e+00  1.0010195541099773e+00  1.0010195541100431e+00  1.0010195541098994e+00  1.0010195541099891e+00  1.0010195541100120e+00  1.0010195541099045e+00  1.0010195541099938e+00  1.0010195541099807e+00  1.0010195541099980e+00  1.0010195541099782e+00  1.0010195541099365e+00  1.0010195541099911e+00  1.0010195541100455e+00  1.0010195541099456e+00  1.0010195541099760e+00  1.0010195541099733e+00  1.0010195541099529e+00  1.0010195541099773e+00  1.0010195541100368e+00  1.0010195541099742e+00  1.0010195541099571e+00  1.0010195541100066e+00  1.0010195541099107e+00  1.0010195541100100e+00  1.0010195541099769e+00  1.0010195541099844e+00  1.0010195541100155e+00  1.0010195541100229e+00  1.0006301178955501e+00  1.0006301178955292e+00  1.0006301178955952e+00  1.0006301178955899e+00  1.0006301178956214e+00  1.0006301178956136e+00  1.0006301178955379e+00  1.0006301178955990e+00  1.0006301178955679e+00  1.0006301178955563e+00  1.0006301178955592e+00  1.0006301178956178e+00  1.0006301178955950e+00  1.0006301178955181e+00  1.0006301178955745e+00  1.0006301178955870e+00  1.0006301178955910e+00  1.0006301178955443e+00  1.0006301178955868e+00  1.0006301178955821e+00  1.0006301178955443e+00  1.0006301178955586e+00  1.0006301178956096e+00  1.0006301178955910e+00  1.0006301178955790e+00  1.0006301178955481e+00  1.0006301178955945e+00  1.0006301178956400e+00  1.0006301178955599e+00  1.0006301178955443e+00  1.0006301178955501e+00  1.0001317305082018e+00  1.0001317305083088e+00  1.0001317305081885e+00  1.0001317305082562e+00  1.0001317305082167e+00  1.0001317305082029e+00  1.0001317305082562e+00  1.0001317305081896e+00  1.0001317305082831e+00  1.0001317305081641e+00  1.0001317305081776e+00  1.0001317305081503e+00  1.0001317305082111e+00  1.0001317305082633e+00  1.0001317305082194e+00  1.0001317305081867e+00  1.0001317305082185e+00  1.0001317305082358e+00  1.0001317305082518e+00  1.0001317305082364e+00  1.0001317305082054e+00  1.0001317305082416e+00  1.0001317305081889e+00  1.0001317305083040e+0