<?xml version="1.0"?>
<VTKFile type="UnstructuredGrid"  version="0.1"  >
<UnstructuredGrid>
<Piece  NumberOfPoints="961" NumberOfCells="1800">
<Points>
<DataArray  type="Float64"  NumberOfComponents="3"  format="ascii">0 0 0  0.03333333333333333 0 0  0.06666666666666667 0 0  0.1 0 0  0.1333333333333333 0 0  0.1666666666666667 0 0  0.2 0 0  0.2333333333333333 0 0  0.2666666666666667 0 0  0.3 0 0  0.3333333333333333 0 0  0.3666666666666666 0 0  0.4 0 0  0.4333333333333333 0 0  0.4666666666666667 0 0  0.5 0 0  0.5333333333333333 0 0  0.5666666666666667 0 0  0.6 0 0  0.6333333333333333 0 0  0.6666666666666666 0 0  0.7 0 0  0.7333333333333333 0 0  0.7666666666666667 0 0  0.8 0 0  0.8333333333333334 0 0  0.8666666666666667 0 0  0.9 0 0  0.9333333333333333 0 0  0.9666666666666667 0 0  1 0 0  0 0.03333333333333333 0  0.03333333333333333 0.03333333333333333 0  0.06666666666666667 0.03333333333333333 0  0.1 0.03333333333333333 0  0.1333333333333333 0.03333333333333333 0  0.1666666666666667 0.03333333333333333 0  0.2 0.03333333333333333 0  0.2333333333333333 0.03333333333333333 0  0.2666666666666667 0.03333333333333333 0  0.3 0.03333333333333333 0  0.3333333333333333 0.03333333333333333 0  0.3666666666666666 0.03333333333333333 0  0.4 0.03333333333333333 0  0.4333333333333333 0.03333333333333333 0  0.4666666666666667 0.03333333333333333 0  0.5 0.03333333333333333 0  0.5333333333333333 0.03333333333333333 0  0.5666666666666667 0.03333333333333333 0  0.6 0.03333333333333333 0  0.6333333333333333 0.03333333333333333 0  0.6666666666666666 0.03333333333333333 0  0.7 0.03333333333333333 0  0.7333333333333333 0.03333333333333333 0  0.7666666666666667 0.03333333333333333 0  0.8 0.03333333333333333 0  0.8333333333333334 0.03333333333333333 0  0.8666666666666667 0.03333333333333333 0  0.9 0.03333333333333333 0  0.9333333333333333 0.03333333333333333 0  0.9666666666666667 0.03333333333333333 0  1 0.03333333333333333 0  0 0.06666666666666667 0  0.03333333333333333 0.06666666666666667 0  0.06666666666666667 0.06666666666666667 0  0.1 0.06666666666666667 0  0.1333333333333333 0.06666666666666667 0  0.1666666666666667 0.06666666666666667 0  0.2 0.06666666666666667 0  0.2333333333333333 0.06666666666666667 0  0.2666666666666667 0.06666666666666667 0  0.3 0.06666666666666667 0  0.3333333333333333 0.06666666666666667 0  0.3666666666666666 0.06666666666666667 0  0.4 0.06666666666666667 0  0.4333333333333333 0.06666666666666667 0  0.4666666666666667 0.06666666666666667 0  0.5 0.06666666666666667 0  0.5333333333333333 0.06666666666666667 0  0.5666666666666667 0.06666666666666667 0  0.6 0.06666666666666667 0  0.6333333333333333 0.06666666666666667 0  0.6666666666666666 0.06666666666666667 0  0.7 0.06666666666666667 0  0.7333333333333333 0.06666666666666667 0  0.7666666666666667 0.06666666666666667 0  0.8 0.06666666666666667 0  0.8333333333333334 0.06666666666666667 0  0.8666666666666667 0.06666666666666667 0  0.9 0.06666666666666667 0  0.9333333333333333 0.06666666666666667 0  0.9666666666666667 0.06666666666666667 0  1 0.06666666666666667 0  0 0.1 0  0.03333333333333333 0.1 0  0.06666666666666667 0.1 0  0.1 0.1 0  0.1333333333333333 0.1 0  0.1666666666666667 0.1 0  0.2 0.1 0  0.2333333333333333 0.1 0  0.2666666666666667 0.1 0  0.3 0.1 0  0.3333333333333333 0.1 0  0.3666666666666666 0.1 0  0.4 0.1 0  0.4333333333333333 0.1 0  0.4666666666666667 0.1 0  0.5 0.1 0  0.5333333333333333 0.1 0  0.5666666666666667 0.1 0  0.6 0.1 0  0.6333333333333333 0.1 0  0.6666666666666666 0.1 0  0.7 0.1 0  0.7333333333333333 0.1 0  0.7666666666666667 0.1 0  0.8 0.1 0  0.8333333333333334 0.1 0  0.8666666666666667 0.1 0  0.9 0.1 0  0.9333333333333333 0.1 0  0.9666666666666667 0.1 0  1 0.1 0  0 0.1333333333333333 0  0.03333333333333333 0.1333333333333333 0  0.06666666666666667 0.1333333333333333 0  0.1 0.1333333333333333 0  0.1333333333333333 0.1333333333333333 0  0.1666666666666667 0.1333333333333333 0  0.2 0.1333333333333333 0  0.2333333333333333 0.1333333333333333 0  0.2666666666666667 0.1333333333333333 0  0.3 0.1333333333333333 0  0.3333333333333333 0.1333333333333333 0  0.3666666666666666 0.1333333333333333 0  0.4 0.1333333333333333 0  0.4333333333333333 0.1333333333333333 0  0.4666666666666667 0.1333333333333333 0  0.5 0.1333333333333333 0  0.5333333333333333 0.1333333333333333 0  0.5666666666666667 0.1333333333333333 0  0.6 0.1333333333333333 0  0.6333333333333333 0.1333333333333333 0  0.6666666666666666 0.1333333333333333 0  0.7 0.1333333333333333 0  0.7333333333333333 0.1333333333333333 0  0.7666666666666667 0.1333333333333333 0  0.8 0.1333333333333333 0  0.8333333333333334 0.1333333333333333 0  0.8666666666666667 0.1333333333333333 0  0.9 0.1333333333333333 0  0.9333333333333333 0.1333333333333333 0  0.9666666666666667 0.1333333333333333 0  1 0.1333333333333333 0  0 0.1666666666666667 0  0.03333333333333333 0.1666666666666667 0  0.06666666666666667 0.1666666666666667 0  0.1 0.1666666666666667 0  0.1333333333333333 0.1666666666666667 0  0.1666666666666667 0.1666666666666667 0  0.2 0.1666666666666667 0  0.2333333333333333 0.1666666666666667 0  0.2666666666666667 0.1666666666666667 0  0.3 0.1666666666666667 0  0.3333333333333333 0.1666666666666667 0  0.3666666666666666 0.1666666666666667 0  0.4 0.1666666666666667 0  0.4333333333333333 0.1666666666666667 0  0.4666666666666667 0.1666666666666667 0  0.5 0.1666666666666667 0  0.5333333333333333 0.1666666666666667 0  0.5666666666666667 0.1666666666666667 0  0.6 0.1666666666666667 0  0.6333333333333333 0.1666666666666667 0  0.6666666666666666 0.1666666666666667 0  0.7 0.1666666666666667 0  0.7333333333333333 0.1666666666666667 0  0.7666666666666667 0.1666666666666667 0  0.8 0.1666666666666667 0  0.8333333333333334 0.1666666666666667 0  0.8666666666666667 0.1666666666666667 0  0.9 0.1666666666666667 0  0.9333333333333333 0.1666666666666667 0  0.9666666666666667 0.1666666666666667 0  1 0.1666666666666667 0  0 0.2 0  0.03333333333333333 0.2 0  0.06666666666666667 0.2 0  0.1 0.2 0  0.1333333333333333 0.2 0  0.1666666666666667 0.2 0  0.2 0.2 0  0.2333333333333333 0.2 0  0.2666666666666667 0.2 0  0.3 0.2 0  0.3333333333333333 0.2 0  0.3666666666666666 0.2 0  0.4 0.2 0  0.4333333333333333 0.2 0  0.4666666666666667 0.2 0  0.5 0.2 0  0.5333333333333333 0.2 0  0.5666666666666667 0.2 0  0.6 0.2 0  0.6333333333333333 0.2 0  0.6666666666666666 0.2 0  0.7 0.2 0  0.7333333333333333 0.2 0  0.7666666666666667 0.2 0  0.8 0.2 0  0.8333333333333334 0.2 0  0.8666666666666667 0.2 0  0.9 0.2 0  0.9333333333333333 0.2 0  0.9666666666666667 0.2 0  1 0.2 0  0 0.2333333333333333 0  0.03333333333333333 0.2333333333333333 0  0.06666666666666667 0.2333333333333333 0  0.1 0.2333333333333333 0  0.1333333333333333 0.2333333333333333 0  0.1666666666666667 0.2333333333333333 0  0.2 0.2333333333333333 0  0.2333333333333333 0.2333333333333333 0  0.2666666666666667 0.2333333333333333 0  0.3 0.2333333333333333 0  0.3333333333333333 0.2333333333333333 0  0.3666666666666666 0.2333333333333333 0  0.4 0.2333333333333333 0  0.4333333333333333 0.2333333333333333 0  0.4666666666666667 0.2333333333333333 0  0.5 0.2333333333333333 0  0.5333333333333333 0.2333333333333333 0  0.5666666666666667 0.2333333333333333 0  0.6 0.2333333333333333 0  0.6333333333333333 0.2333333333333333 0  0.6666666666666666 0.2333333333333333 0  0.7 0.2333333333333333 0  0.7333333333333333 0.2333333333333333 0  0.7666666666666667 0.2333333333333333 0  0.8 0.2333333333333333 0  0.8333333333333334 0.2333333333333333 0  0.8666666666666667 0.2333333333333333 0  0.9 0.2333333333333333 0  0.9333333333333333 0.2333333333333333 0  0.9666666666666667 0.2333333333333333 0  1 0.2333333333333333 0  0 0.2666666666666667 0  0.03333333333333333 0.2666666666666667 0  0.06666666666666667 0.2666666666666667 0  0.1 0.2666666666666667 0  0.1333333333333333 0.2666666666666667 0  0.1666666666666667 0.2666666666666667 0  0.2 0.2666666666666667 0  0.2333333333333333 0.2666666666666667 0  0.2666666666666667 0.2666666666666667 0  0.3 0.2666666666666667 0  0.3333333333333333 0.2666666666666667 0  0.3666666666666666 0.2666666666666667 0  0.4 0.2666666666666667 0  0.4333333333333333 0.2666666666666667 0  0.4666666666666667 0.2666666666666667 0  0.5 0.2666666666666667 0  0.5333333333333333 0.2666666666666667 0  0.5666666666666667 0.2666666666666667 0  0.6 0.2666666666666667 0  0.6333333333333333 0.2666666666666667 0  0.6666666666666666 0.2666666666666667 0  0.7 0.2666666666666667 0  0.7333333333333333 0.2666666666666667 0  0.7666666666666667 0.2666666666666667 0  0.8 0.2666666666666667 0  0.8333333333333334 0.2666666666666667 0  0.8666666666666667 0.2666666666666667 0  0.9 0.2666666666666667 0  0.9333333333333333 0.2666666666666667 0  0.9666666666666667 0.2666666666666667 0  1 0.2666666666666667 0  0 0.3 0  0.03333333333333333 0.3 0  0.06666666666666667 0.3 0  0.1 0.3 0  0.1333333333333333 0.3 0  0.1666666666666667 0.3 0  0.2 0.3 0  0.2333333333333333 0.3 0  0.2666666666666667 0.3 0  0.3 0.3 0  0.3333333333333333 0.3 0  0.3666666666666666 0.3 0  0.4 0.3 0  0.4333333333333333 0.3 0  0.4666666666666667 0.3 0  0.5 0.3 0  0.5333333333333333 0.3 0  0.5666666666666667 0.3 0  0.6 0.3 0  0.6333333333333333 0.3 0  0.6666666666666666 0.3 0  0.7 0.3 0  0.7333333333333333 0.3 0  0.7666666666666667 0.3 0  0.8 0.3 0  0.8333333333333334 0.3 0  0.8666666666666667 0.3 0  0.9 0.3 0  0.9333333333333333 0.3 0  0.9666666666666667 0.3 0  1 0.3 0  0 0.3333333333333333 0  0.03333333333333333 0.3333333333333333 0  0.06666666666666667 0.3333333333333333 0  0.1 0.3333333333333333 0  0.1333333333333333 0.3333333333333333 0  0.1666666666666667 0.3333333333333333 0  0.2 0.3333333333333333 0  0.2333333333333333 0.3333333333333333 0  0.2666666666666667 0.3333333333333333 0  0.3 0.3333333333333333 0  0.3333333333333333 0.3333333333333333 0  0.3666666666666666 0.3333333333333333 0  0.4 0.3333333333333333 0  0.4333333333333333 0.3333333333333333 0  0.4666666666666667 0.3333333333333333 0  0.5 0.3333333333333333 0  0.5333333333333333 0.33333333333333
[...]
<PointData  Vectors="u_f"> 
<DataArray  type="Float64"  Name="u_f"  NumberOfComponents="3" format="ascii">2.7092811567360668e-06 1.6881470890238101e-09 0.0000000000000000e+00  2.7092811624348503e-06 1.6881530891070529e-09 0.0000000000000000e+00  2.7092811551425607e-06 1.6881694901585767e-09 0.0000000000000000e+00  2.7092811612863549e-06 1.6881628648159411e-09 0.0000000000000000e+00  2.7092811564300508e-06 1.6881456917582603e-09 0.0000000000000000e+00  2.7092811560255350e-06 1.6881508809666983e-09 0.0000000000000000e+00  2.7092811525035042e-06 1.6881671890478858e-09 0.0000000000000000e+00  2.7092811618938334e-06 1.6881533213431582e-09 0.0000000000000000e+00  2.7092811520125232e-06 1.6881426681894518e-09 0.0000000000000000e+00  2.7092811470269280e-06 1.6881731899984903e-09 0.0000000000000000e+00  2.7092811738422835e-06 1.6881638658598069e-09 0.0000000000000000e+00  2.7092811268826142e-06 1.6880355209881841e-09 0.0000000000000000e+00  2.7092811043771250e-06 1.6881294030300815e-09 0.0000000000000000e+00  2.7092811501199399e-06 1.6881808603493899e-09 0.0000000000000000e+00  2.7092811700706694e-06 1.6881786374638857e-09 0.0000000000000000e+00  2.7092811726951434e-06 1.6881650515975129e-09 0.0000000000000000e+00  2.7092811435570473e-06 1.6881570576664749e-09 0.0000000000000000e+00  2.7092811650687026e-06 1.6881469459091233e-09 0.0000000000000000e+00  2.7092811645917621e-06 1.6881442297116307e-09 0.0000000000000000e+00  2.7092811492356104e-06 1.6881544982446164e-09 0.0000000000000000e+00  2.7092811542947688e-06 1.6881556507515258e-09 0.0000000000000000e+00  2.7092811622627874e-06 1.6881212017453781e-09 0.0000000000000000e+00  2.7092811963164935e-06 1.6882543679014317e-09 0.0000000000000000e+00  2.7092812233908106e-06 1.6881927115464969e-09 0.0000000000000000e+00  2.7092811753118653e-06 1.6881434148794880e-09 0.0000000000000000e+00  2.7092811404963988e-06 1.6881659700251732e-09 0.0000000000000000e+00  2.7092811722617877e-06 1.6881727160395106e-09 0.0000000000000000e+00  2.7092811511449447e-06 1.6881474635072405e-09 0.0000000000000000e+00  2.7092811524861028e-06 1.6881518975688653e-09 0.0000000000000000e+00  2.7092811690863222e-06 1.6881438100169698e-09 0.0000000000000000e+00  2.7092811567361211e-06 -4.3602623703708433e-10 0.0000000000000000e+00  4.1705200794045353e-04 1.8931822829250725e-09 0.0000000000000000e+00  4.1705200793148924e-04 1.8932071921447247e-09 0.0000000000000000e+00  4.1705200794476193e-04 1.8932032382762420e-09 0.0000000000000000e+00  4.1705200795186530e-04 1.8932144967400213e-09 0.0000000000000000e+00  4.1705200795803614e-04 1.8932289299646021e-09 0.0000000000000000e+00  4.1705200795168120e-04 1.8932206333243176e-09 0.0000000000000000e+00  4.1705200793931392e-04 1.8932006172174901e-09 0.0000000000000000e+00  4.1705200794201229e-04 1.8932039945072573e-09 0.0000000000000000e+00  4.1705200792830971e-04 1.8931924821233292e-09 0.0000000000000000e+00  4.1705200793443697e-04 1.8931922999773643e-09 0.0000000000000000e+00  4.1705200795296414e-04 1.8932123136989470e-09 0.0000000000000000e+00  4.1705200788522828e-04 1.8931349904599895e-09 0.0000000000000000e+00  4.1705200790245929e-04 1.8931557441495550e-09 0.0000000000000000e+00  4.1705200793286541e-04 1.8932107218733174e-09 0.0000000000000000e+00  4.1705200795822339e-04 1.8932210382738290e-09 0.0000000000000000e+00  4.1705200794534469e-04 1.8931920220963475e-09 0.0000000000000000e+00  4.1705200794649546e-04 1.8932157253579232e-09 0.0000000000000000e+00  4.1705200793381398e-04 1.8932181690411998e-09 0.0000000000000000e+00  4.1705200792991758e-04 1.8932302691711256e-09 0.0000000000000000e+00  4.1705200795925837e-04 1.8932133791444219e-09 0.0000000000000000e+00  4.1705200793209834e-04 1.8932118384931348e-09 0.0000000000000000e+00  4.1705200794592962e-04 1.8932016355001705e-09 0.0000000000000000e+00  4.1705200800729893e-04 1.8933029961518133e-09 0.0000000000000000e+00  4.1705200800309971e-04 1.8932388999625197e-09 0.0000000000000000e+00  4.1705200794927059e-04 1.8932105442810016e-09 0.0000000000000000e+00  4.1705200794806539e-04 1.8932120092549770e-09 0.0000000000000000e+00  4.1705200794341383e-04 1.8932242690878828e-09 0.0000000000000000e+00  4.1705200793602500e-04 1.8932144018723313e-09 0.0000000000000000e+00  4.1705200794291434e-04 1.8932111493742340e-09 0.0000000000000000e+00  4.1705200794842155e-04 1.8932130558353341e-09 0.0000000000000000e+00  4.1705200794045375e-04 -1.7801723086841050e-09 0.0000000000000000e+00  7.5928258894320997e-04 1.5376844111165619e-09 0.0000000000000000e+00  7.5928258895217144e-04 1.5376936468927682e-09 0.0000000000000000e+00  7.5928258896167393e-04 1.5376794111014030e-09 0.0000000000000000e+00  7.5928258893869589e-04 1.5376538506015058e-09 0.0000000000000000e+00  7.5928258894870666e-04 1.5376731185004142e-09 0.0000000000000000e+00  7.5928258896034958e-04 1.5376974270720628e-09 0.0000000000000000e+00  7.5928258895523366e-04 1.5376774181209696e-09 0.0000000000000000e+00  7.5928258893964110e-04 1.5376814937453562e-09 0.0000000000000000e+00  7.5928258895098641e-04 1.5376906544947722e-09 0.0000000000000000e+00  7.5928258896415404e-04 1.5376886006905968e-09 0.0000000000000000e+00  7.5928258893844750e-04 1.5377034241195395e-09 0.0000000000000000e+00  7.5928258889352879e-04 1.5376028400819128e-09 0.0000000000000000e+00  7.5928258890940877e-04 1.5376652183528641e-09 0.0000000000000000e+00  7.5928258895019798e-04 1.5376841106841399e-09 0.0000000000000000e+00  7.5928258895197683e-04 1.5376940082573523e-09 0.0000000000000000e+00  7.5928258895492163e-04 1.5376846691566790e-09 0.0000000000000000e+00  7.5928258895472094e-04 1.5376668898673534e-09 0.0000000000000000e+00  7.5928258894055693e-04 1.5376776288898719e-09 0.0000000000000000e+00  7.5928258895600008e-04 1.5376606647037397e-09 0.0000000000000000e+00  7.5928258894535138e-04 1.5376830736447619e-09 0.0000000000000000e+00  7.5928258895277534e-04 1.5376862130605726e-09 0.0000000000000000e+00  7.5928258895363132e-04 1.5376698962515575e-09 0.0000000000000000e+00  7.5928258901589835e-04 1.5377770119567521e-09 0.0000000000000000e+00  7.5928258899869488e-04 1.5376952920611447e-09 0.0000000000000000e+00  7.5928258895783965e-04 1.5376848245228503e-09 0.0000000000000000e+00  7.5928258895702173e-04 1.5376618407378362e-09 0.0000000000000000e+00  7.5928258893173662e-04 1.5376665028071779e-09 0.0000000000000000e+00  7.5928258894439966e-04 1.5376740478785164e-09 0.0000000000000000e+00  7.5928258894365417e-04 1.5377024600469677e-09 0.0000000000000000e+00  7.5928258896577644e-04 1.5376805294559440e-09 0.0000000000000000e+00  7.5928258894321040e-04 -2.6894204188374256e-09 0.0000000000000000e+00  9.7022637355205412e-04 1.0459091041165047e-09 0.0000000000000000e+00  9.7022637354328054e-04 1.0459117521718908e-09 0.0000000000000000e+00  9.7022637355643083e-04 1.0459180977903659e-09 0.0000000000000000e+00  9.7022637355482621e-04 1.0459199879884334e-09 0.0000000000000000e+00  9.7022637355207385e-04 1.0459098186057364e-09 0.0000000000000000e+00  9.7022637354709628e-04 1.0459245104125353e-09 0.0000000000000000e+00  9.7022637356103522e-04 1.0459276864743794e-09 0.0000000000000000e+00  9.7022637354672917e-04 1.0459224491273650e-09 0.0000000000000000e+00  9.7022637357082123e-04 1.0459223552354568e-09 0.0000000000000000e+00  9.7022637354424505e-04 1.0459079945440014e-09 0.0000000000000000e+00  9.7022637355629834e-04 1.0459017044366775e-09 0.0000000000000000e+00  9.7022637352716691e-04 1.0459338070124835e-09 0.0000000000000000e+00  9.7022637357798368e-04 1.0459176541348369e-09 0.0000000000000000e+00  9.7022637355783509e-04 1.0459218150859345e-09 0.0000000000000000e+00  9.7022637355810614e-04 1.0458964983146857e-09 0.0000000000000000e+00  9.7022637355501725e-04 1.0459033316072980e-09 0.0000000000000000e+00  9.7022637354536026e-04 1.0459135378528689e-09 0.0000000000000000e+00  9.7022637353449286e-04 1.0459009804064667e-09 0.0000000000000000e+00  9.7022637355946443e-04 1.0459428783152203e-09 0.0000000000000000e+00  9.7022637356555461e-04 1.0459082181064894e-09 0.0000000000000000e+00  9.7022637354400696e-04 1.0459128762727032e-09 0.0000000000000000e+00  9.7022637354505299e-04 1.0458943299103407e-09 0.0000000000000000e+00  9.7022637359154835e-04 1.0459042089436960e-09 0.0000000000000000e+00  9.7022637354093931e-04 1.0459225612338696e-09 0.0000000000000000e+00  9.7022637356173301e-04 1.0459372556427537e-09 0.0000000000000000e+00  9.7022637356664770e-04 1.0458990802337392e-09 0.0000000000000000e+00  9.7022637354706983e-04 1.0459229719296526e-09 0.0000000000000000e+00  9.7022637354610532e-04 1.0459065341236751e-09 0.0000000000000000e+00  9.7022637355492314e-04 1.0458986060037090e-09 0.0000000000000000e+00  9.7022637355813541e-04 1.0459265116329053e-09 0.0000000000000000e+00  9.7022637355205434e-04 -3.1149291167642757e-09 0.0000000000000000e+00  1.0134093330495322e-03 7.2616659408698825e-10 0.0000000000000000e+00  1.0134093330139630e-03 7.2617668551554909e-10 0.0000000000000000e+00  1.0134093330171436e-03 7.2616952566124243e-10 0.0000000000000000e+00  1.0134093330329999e-03 7.2615281593736009e-10 0.0000000000000000e+00  1.0134093330279831e-03 7.2615006596696979e-10 0.0000000000000000e+00  1.0134093330131989e-03 7.2615967991289387e-10 0.0000000000000000e+00  1.0134093330236682e-03 7.2616779061250580e-10 0.0000000000000000e+00  1.0134093330133676e-03 7.2619566599246149e-10 0.0000000000000000e+00  1.0134093330426655e-03 7.2619406343323034e-10 0.0000000000000000e+00  1.0134093330387117e-03 7.2618843425555080e-10 0.0000000000000000e+00  1.0134093330112866e-03 7.2617952276421427e-10 0.0000000000000000e+00  1.0134093330425851e-03 7.2616985753552743e-10 0.0000000000000000e+00  1.0134093330102494e-03 7.2616647731841427e-10 0.0000000000000000e+00  1.0134093330364375e-03 7.2617655747127252e-10 0.0000000000000000e+00  1.0134093330359676e-03 7.2617626321880291e-10 0.0000000000000000e+00  1.0134093330282418e-03 7.2617571135989711e-10 0.0000000000000000e+00  1.0134093330347793e-03 7.2616451296091816e-10 0.0000000000000000e+00  1.0134093330326414e-03 7.2615660945234140e-10 0.0000000000000000e+00  1.0134093330094406e-03 7.2615773040896753e-10 0.0000000000000000e+00  1.0134093330260124e-03 7.2616005927523403e-10 0.0000000000000000e+00  1.0134093330103340e-03 7.2615626370026859e-10 0.0000000000000000e+00  1.0134093330292208e-03 7.2616993494756255e-10 0.0000000000000000e+00  1.0134093330215269e-03 7.2614604693793661e-10 0.0000000000000000e+00  1.0134093330388567e-03 7.2616587038203811e-10 0.0000000000000000e+00  1.0134093330145600e-03 7.2618312535119300e-10 0.0000000000000000e+00  1.0134093330340863e-03 7.2617885511251645e-10 0.0000000000000000e+00  1.0134093330198453e-03 7.2617623177693991e-10 0.0000000000000000e+00  1.0134093330313012e-03 7.2619142578618512e-10 0.0000000000000000e+00  1.0134093330342593e-03 7.2615955262755882e-10 0.0000000000000000e+00  1.0134093330104411e-03 7.2618359860544129e-10 0.0000000000000000e+00  1.0134093330495325e-03 -3.0847151116020445e-09 0.0000000000000000e+00  8.8136470645421917e-04 5.6997173018651093e-10 0.0000000000000000e+00  8.8136470643357899e-04 5.6996444326370965e-10 0.0000000000000000e+00  8.8136470641878646e-04 5.6995610347217868e-10 0.0000000000000000e+00  8.8136470642808339e-04 5.6997249953637252e-10 0.0000000000000000e+00  8.8136470642565846e-04 5.6998931366892408e-10 0.0000000000000000e+00  8.8136470645645197e-04 5.6999515133868139e-10 0.0000000000000000e+00  8.8136470642092668e-04 5.6996422859167950e-10 0.0000000000000000e+00  8.8136470642836897e-04 5.6999435130589832e-10 0.0000000000000000e+00  8.8136470643487093e-04 5.6998932396884472e-10 0.0000000000000000e+00  8.8136470645221957e-04 5.6997132859802624e-10 0.0000000000000000e+00  8.8136470644085735e-04 5.6998704736112293e-10 0.0000000000000000e+00  8.8136470641780255e-04 5.6997073662364006e-10 0.0000000000000000e+00  8.8136470642913290e-04 5.6997198616664385e-10 0.0000000000000000e+00  8.8136470644074546e-04 5.6996277511024707e-10 0.0000000000000000e+00  8.8136470641736117e-04 5.6996773479308510e-10 0.0000000000000000e+00  8.8136470643857467e-04 5.6995936410179221e-10 0.0000000000000000e+00  8.8136470642085165e-04 5.6997857746533126e-10 0.0000000000000000e+00  8.8136470644127878e-04 5.6997013489143433e-10 0.0000000000000000e+00  8.8136470640874393e-04 5.6997641133781085e-10 0.0000000000000000e+00  8.8136470644326970e-04 5.6997519442929245e-10 0.0000000000000000e+00  8.8136470641637401e-04 5.6997950380766743e-10 0.0000000000000000e+00  8.8136470643294159e-04 5.6997057290911202e-10 0.0000000000000000e+00  8.8136470643542615e-04 5.6999046726003560e-10 0.0000000000000000e+00  8.8136470644084597e-04 5.6996322093418039e-10 0.0000000000000000e+00  8.8136470643894254e-04 5.6996678839300874e-10 0.0000000000000000e+00  8.8136470643189967e-04 5.6996756403124293e-10 0.0000000000000000e+00  8.8136470641353686e-04 5.6996152404936024e-10 0.0000000000000000e+00  8.8136470644291939e-04 5.6996647267333611e-10 0.0000000000000000e+00  8.8136470643217408e-04 5.6997540400557239e-10 0.0000000000000000e+00  8.8136470642753088e-04 5.6998553489909232e-10 0.0000000000000000e+00  8.8136470645421960e-04 -2.6316249696933096e-09 0.0000000000000000e+00  5.9692409401087003e-04 2.9616951149587581e-10 0.0000000000000000e+00  5.9692409400771934e-04 2.9619496460554784e-10 0.0000000000000000e+00  5.9692409401277823e-04 2.9619605509609293e-10 0.0000000000000000e+00  5.9692409401186685e-04 2.9618148000365788e-10 0.0000000000000000e+00  5.9692409400857456e-04 2.9616834240067322e-10 0.0000000000000000e+00  5.9692409400585083e-04 2.9616874415178823e-10 0.0000000000000000e+00  5.9692409400343436e-04 2.9617274301466101e-10 0.0000000000000000e+00  5.9692409401205159e-04 2.9619958981201566e-10 0.0000000000000000e+00  5.9692409401691684e-04 2.9618000006769243e-10 0.0000000000000000e+00  5.9692409400107600e-04 2.9618575186863769e-10 0.0000000000000000e+00  5.9692409400942533e-04 2.9618998627443244e-10 0.0000000000000000e+00  5.9692409400699011e-04 2.9618526815183843e-10 0.0000000000000000e+00  5.9692409401674966e-04 2.9618370185916995e-10 0.0000000000000000e+00  5.9692409400258683e-04 2.9619276768668573e-10 0.0000000000000000e+00  5.9692409401025442e-04 2.9618417310764422e-10 0.0000000000000000e+00  5.9692409403385577e-04 2.9618640482939607e-10 0.0000000000000000e+00  5.9692409399699680e-04 2.9618075331715177e-10 0.0000000000000000e+00  5.9692409400409518e-04 2.9619562802885718e-10 0.0000000000000000e+00  5.9692409402668485e-04 2.9616939938937117e-10 0.0000000000000000e+00  5.9692409398101761e-04 2.9616143662914568e-10 0.0000000000000000e+00  5.9692409400467317e-04 2.9617835874823362e-10 0.0000000000000000e+00  5.9692409402586411e-04 2.9619120963395376e-10 0.0000000000000000e+00  5.9692409401078915e-04 2.9619570419405980e-10 0.0000000000000000e+00  5.9692409402062655e-04 2.9618032592465537e-10 0.0000000000000000e+00  5.9692409399616673e-04 2.9617647315802534e-10 0.0000000000000000e+00  5.9692409401092446e-04 2.9618286203616714e-10 0.0000000000000000e+00  5.9692409399976021e-04 2.9619359243927834e-10 0.0000000000000000e+00  5.9692409401138568e-04 2.9618334125352738e-10 0.0000000000000000e+00  5.9692409399131384e-04 2.9616565585611002e-10 0.0000000000000000e+00  5.9692409400663709e-04 2.9617121271750466e-10 0.0000000000000000e+00  5.9692409401087025e-04 -1.7712055121836842e-09 0.0000000000000000e+00  2.0926974196133649e-04 -3.9646376596470540e-10 0.0000000000000000e+00  2.0926974198106572e-04 -3.9650020997061310e-10 0.0000000000000000e+00  2.0926974197339385e-04 -3.9648701218085534e-10 0.0000000000000000e+00  2.0926974195510238e-04 -3.9650535230085961e-10 0.0000000000000000e+00  2.0926974195354878e-04 -3.9650051564786310e-10 0.0000000000000000e+00  2.0926974195414753e-04 -3.9648909452665287e-10 0.0000000000000000e+00  2.0926974196448024e-04 -3.9647381630200391e-10 0.0000000000000000e+00  2.0926974197983228e-04 -3.9649702741710851e-10 0.0000000000000000e+00  2.0926974195888733e-04 -3.9648840016292403e-10 0.0000000000000000e+00  2.0926974196065783e-04 -3.9649773732558600e-10 0.0000000000000000e+00  2.0926974195463160e-04 -3.9648947439043652e-10 0.0000000000000000e+00  2.0926974194450837e-04 -3.9648459343422874e-10 0.0000000000000000e+00  2.0926974197230721e-04 -3.9650191500050207e-10 0.0000000000000000e+00  2.0926974195789374e-04 -3.9650157752902336e-10 0.0000000000000000e+00  2.0926974196673934e-04 -3.9649960714065267e-10 0.0000000000000000e+00  2.0926974196057587e-04 -3.9651083546361158e-10 0.0000000000000000e+00  2.0926974194812538e-04 -3.9649816788937375e-10 0.0000000000000000e+00  2.0926974196829935e-04 -3.9647935737470441e-10 0.0000000000000000e+00  2.0926974197114798e-04 -3.9649253867103662e-10 0.0000000000000000e+00  2.0926974195219331e-04 -3.9650500776851425e-10 0.0000000000000000e+00  2.0926974195418368e-04 -3.9648333361840937e-10 0.0000000000000000e+00  2.0926974197631290e-04 -3.9651001976410711e-10 0.0000000000000000e+00  2.0926974196032726e-04 -3.9649292711356997e-10 0.0000000000000000e+00  2.0926974195640917e-04 -3.9648057516413707e-10 0.0000000000000000e+00  2.0926974196511526e-04 -3.9649912792329243e-10 0.0000000000000000e+00  2.0926974196873189e-04 -3.9651983323033598e-10 0.0000000000000000e+00  2.0926974193956327e-04 -3.9649492987892804e-10 0.0000000000000000e+00  2.0926974196102158e-04 -3.9648191621380422e-10 0.0000000000000000e+00  2.0926974196211056e-04 -3.9648789724219379e-10 0.0000000000000000e+00  2.0926974195516613e-04 -3.9649541294520599e-10 0.0000000000000000e+00  2.0926974196133652e-04 -5.4149770800630972e-10 0.0000000000000000e+00  -2.1456943508714194e-04 -1.5470888594737789e-09 0.0000000000000000e+00  -2.1456943507853728e-04 -1.5470857748643881e-09 0.0000000000000000e+00  -2.1456943508858643e-04 -1.5470948991846110e-09 0.0000000000000000e+00  -2.1456943508881742e-04 -1.5470976969141070e-09 0.0000000000000000e+00  -2.1456943509372381e-04 -1.5471002680995591e-09 0.0000000000000000e+00  -2.1456943508197079e-04 -1.5471023867932344e-09 0.0000000000000000e+00  -2.1456943509936882e-04 -1.5471167586519723e-09 0.0000000000000000e+00  -2.1456943509602335e-04 -1.5470842466814259e-09 0.0000000000000000e+00  -2.1456943508693080e-04 -1.5470871437238409e-09 0.0000000000000000e+00  -2.1456943507188500e-04 -1.5470938090735367e-09 0.0000000000000000e+00  -2.1456943509294644e-04 -1.5471023422325252e-09 0.0000000000000000e+00  -2.1456943509959959e-04 -1.5470838457434626e-09 0.0000000000000000e+00  -2.1456943506801792e-04 -1.5470736959306147e-09 0.0000000000000000e+00  -2.1456943509017126e-04 -1.5470897732935800e-09 0.0000000000000000e+00  -2.1456943508104271e-04 -1.5470828258886890e-09 0.0000000000000000e+00  -2.1456943510041079e-04 -1.5470780992551079e-09 0.0000000000000000e+00  -2.1456943506286270e-04 -1.5471111026402889e-09 0.0000000000000000e+00  -2.1456943510129772e-04 -1.5470998652642419e-09 0.0000000000000000e+00  -2.1456943507502902e-04 -1.5470862717000336e-09 0.0000000000000000e+00  -2.1456943507913809e-04 -1.5471005522689485e-09 0.0000000000000000e+00  -2.1456943510661741e-04 -1.5471023857090323e-09 0.0000000000000000e+00  -2.1456943507083636e-04 -1.5470771804479769e-09 0.0000000000000000e+00  -2.1456943508472889e-04 -1.5471027116202053e-09 0.0000000000000000e+00  -2.1456943509759138e-04 -1.5471033060882565e-09 0.0000000000000000e+00  -2.1456943509274976e-04 -1.5470752377745242e-09 0.0000000000000000e+00  -2.1456943506485340e-04 -1.5470706555024624e-09 0.0000000000000000e+00  -2.1456943509881940e-04 -1.5471072260212111e-09 0.0000000000000000e+00  -2.1456943509792428e-04 -1.5471060549744446e-09 0.0000000000000000e+00  -2.1456943508186459e-04 -1.5471118491134847e-09 0.0000000000000000e+00  -2.1456943509029323e-04 -1.5471055707697544e-09 0.0000000000000000e+00  -2.1456943508714211e-04 9.3125234391512457e-10 0.0000000000000000e+00  -6.0130773229366823e-04 -2.8209091577392764e-09 0.0000000000000000e+00  -6.0130773228432436e-04 -2.8209096620017068e-09 0.0000000000000000e+00  -6.0130773227041209e-04 -2.8209304452899917e-09 0.0000000000000000e+00  -6.0130773229317882e-04 -2.8209213190182048e-09 0