<?xml version="1.0"?>
<VTKFile type="UnstructuredGrid"  version="0.1"  >
<UnstructuredGrid>
<Piece  NumberOfPoints="961" NumberOfCells="1800">
<Points>
<DataArray  type="Float64"  NumberOfComponents="3"  format="ascii">0 0 0  0.03333333333333333 0 0  0.06666666666666667 0 0  0.1 0 0  0.1333333333333333 0 0  0.1666666666666667 0 0  0.2 0 0  0.2333333333333333 0 0  0.2666666666666667 0 0  0.3 0 0  0.3333333333333333 0 0  0.3666666666666666 0 0  0.4 0 0  0.4333333333333333 0 0  0.4666666666666667 0 0  0.5 0 0  0.5333333333333333 0 0  0.5666666666666667 0 0  0.6 0 0  0.6333333333333333 0 0  0.6666666666666666 0 0  0.7 0 0  0.7333333333333333 0 0  0.7666666666666667 0 0  0.8 0 0  0.8333333333333334 0 0  0.8666666666666667 0 0  0.9 0 0  0.9333333333333333 0 0  0.9666666666666667 0 0  1 0 0  0 0.03333333333333333 0  0.03333333333333333 0.03333333333333333 0  0.06666666666666667 0.03333333333333333 0  0.1 0.03333333333333333 0  0.1333333333333333 0.03333333333333333 0  0.1666666666666667 0.03333333333333333 0  0.2 0.03333333333333333 0  0.2333333333333333 0.03333333333333333 0  0.2666666666666667 0.03333333333333333 0  0.3 0.03333333333333333 0  0.3333333333333333 0.03333333333333333 0  0.3666666666666666 0.03333333333333333 0  0.4 0.03333333333333333 0  0.4333333333333333 0.03333333333333333 0  0.4666666666666667 0.03333333333333333 0  0.5 0.03333333333333333 0  0.5333333333333333 0.03333333333333333 0  0.5666666666666667 0.03333333333333333 0  0.6 0.03333333333333333 0  0.6333333333333333 0.03333333333333333 0  0.6666666666666666 0.03333333333333333 0  0.7 0.03333333333333333 0  0.7333333333333333 0.03333333333333333 0  0.7666666666666667 0.03333333333333333 0  0.8 0.03333333333333333 0  0.8333333333333334 0.03333333333333333 0  0.8666666666666667 0.03333333333333333 0  0.9 0.03333333333333333 0  0.9333333333333333 0.03333333333333333 0  0.9666666666666667 0.03333333333333333 0  1 0.03333333333333333 0  0 0.06666666666666667 0  0.03333333333333333 0.06666666666666667 0  0.06666666666666667 0.06666666666666667 0  0.1 0.06666666666666667 0  0.1333333333333333 0.06666666666666667 0  0.1666666666666667 0.06666666666666667 0  0.2 0.06666666666666667 0  0.2333333333333333 0.06666666666666667 0  0.2666666666666667 0.06666666666666667 0  0.3 0.06666666666666667 0  0.3333333333333333 0.06666666666666667 0  0.3666666666666666 0.06666666666666667 0  0.4 0.06666666666666667 0  0.4333333333333333 0.06666666666666667 0  0.4666666666666667 0.06666666666666667 0  0.5 0.06666666666666667 0  0.5333333333333333 0.06666666666666667 0  0.5666666666666667 0.06666666666666667 0  0.6 0.06666666666666667 0  0.6333333333333333 0.06666666666666667 0  0.6666666666666666 0.06666666666666667 0  0.7 0.06666666666666667 0  0.7333333333333333 0.06666666666666667 0  0.7666666666666667 0.06666666666666667 0  0.8 0.06666666666666667 0  0.8333333333333334 0.06666666666666667 0  0.8666666666666667 0.06666666666666667 0  0.9 0.06666666666666667 0  0.9333333333333333 0.06666666666666667 0  0.9666666666666667 0.06666666666666667 0  1 0.06666666666666667 0  0 0.1 0  0.03333333333333333 0.1 0  0.06666666666666667 0.1 0  0.1 0.1 0  0.1333333333333333 0.1 0  0.1666666666666667 0.1 0  0.2 0.1 0  0.2333333333333333 0.1 0  0.2666666666666667 0.1 0  0.3 0.1 0  0.3333333333333333 0.1 0  0.3666666666666666 0.1 0  0.4 0.1 0  0.4333333333333333 0.1 0  0.4666666666666667 0.1 0  0.5 0.1 0  0.5333333333333333 0.1 0  0.5666666666666667 0.1 0  0.6 0.1 0  0.6333333333333333 0.1 0  0.6666666666666666 0.1 0  0.7 0.1 0  0.7333333333333333 0.1 0  0.7666666666666667 0.1 0  0.8 0.1 0  0.8333333333333334 0.1 0  0.8666666666666667 0.1 0  0.9 0.1 0  0.9333333333333333 0.1 0  0.9666666666666667 0.1 0  1 0.1 0  0 0.1333333333333333 0  0.03333333333333333 0.1333333333333333 0  0.06666666666666667 0.1333333333333333 0  0.1 0.1333333333333333 0  0.1333333333333333 0.1333333333333333 0  0.1666666666666667 0.1333333333333333 0  0.2 0.1333333333333333 0  0.2333333333333333 0.1333333333333333 0  0.2666666666666667 0.1333333333333333 0  0.3 0.1333333333333333 0  0.3333333333333333 0.1333333333333333 0  0.3666666666666666 0.1333333333333333 0  0.4 0.1333333333333333 0  0.4333333333333333 0.1333333333333333 0  0.4666666666666667 0.1333333333333333 0  0.5 0.1333333333333333 0  0.5333333333333333 0.1333333333333333 0  0.5666666666666667 0.1333333333333333 0  0.6 0.1333333333333333 0  0.6333333333333333 0.1333333333333333 0  0.6666666666666666 0.1333333333333333 0  0.7 0.1333333333333333 0  0.7333333333333333 0.1333333333333333 0  0.7666666666666667 0.1333333333333333 0  0.8 0.1333333333333333 0  0.8333333333333334 0.1333333333333333 0  0.8666666666666667 0.1333333333333333 0  0.9 0.1333333333333333 0  0.9333333333333333 0.1333333333333333 0  0.9666666666666667 0.1333333333333333 0  1 0.1333333333333333 0  0 0.1666666666666667 0  0.03333333333333333 0.1666666666666667 0  0.06666666666666667 0.1666666666666667 0  0.1 0.1666666666666667 0  0.1333333333333333 0.1666666666666667 0  0.1666666666666667 0.1666666666666667 0  0.2 0.1666666666666667 0  0.2333333333333333 0.1666666666666667 0  0.2666666666666667 0.1666666666666667 0  0.3 0.1666666666666667 0  0.3333333333333333 0.1666666666666667 0  0.3666666666666666 0.1666666666666667 0  0.4 0.1666666666666667 0  0.4333333333333333 0.1666666666666667 0  0.4666666666666667 0.1666666666666667 0  0.5 0.1666666666666667 0  0.5333333333333333 0.1666666666666667 0  0.5666666666666667 0.1666666666666667 0  0.6 0.1666666666666667 0  0.6333333333333333 0.1666666666666667 0  0.6666666666666666 0.1666666666666667 0  0.7 0.1666666666666667 0  0.7333333333333333 0.1666666666666667 0  0.7666666666666667 0.1666666666666667 0  0.8 0.1666666666666667 0  0.8333333333333334 0.1666666666666667 0  0.8666666666666667 0.1666666666666667 0  0.9 0.1666666666666667 0  0.9333333333333333 0.1666666666666667 0  0.9666666666666667 0.1666666666666667 0  1 0.1666666666666667 0  0 0.2 0  0.03333333333333333 0.2 0  0.06666666666666667 0.2 0  0.1 0.2 0  0.1333333333333333 0.2 0  0.1666666666666667 0.2 0  0.2 0.2 0  0.2333333333333333 0.2 0  0.2666666666666667 0.2 0  0.3 0.2 0  0.3333333333333333 0.2 0  0.3666666666666666 0.2 0  0.4 0.2 0  0.4333333333333333 0.2 0  0.4666666666666667 0.2 0  0.5 0.2 0  0.5333333333333333 0.2 0  0.5666666666666667 0.2 0  0.6 0.2 0  0.6333333333333333 0.2 0  0.6666666666666666 0.2 0  0.7 0.2 0  0.7333333333333333 0.2 0  0.7666666666666667 0.2 0  0.8 0.2 0  0.8333333333333334 0.2 0  0.8666666666666667 0.2 0  0.9 0.2 0  0.9333333333333333 0.2 0  0.9666666666666667 0.2 0  1 0.2 0  0 0.2333333333333333 0  0.03333333333333333 0.2333333333333333 0  0.06666666666666667 0.2333333333333333 0  0.1 0.2333333333333333 0  0.1333333333333333 0.2333333333333333 0  0.1666666666666667 0.2333333333333333 0  0.2 0.2333333333333333 0  0.2333333333333333 0.2333333333333333 0  0.2666666666666667 0.2333333333333333 0  0.3 0.2333333333333333 0  0.3333333333333333 0.2333333333333333 0  0.3666666666666666 0.2333333333333333 0  0.4 0.2333333333333333 0  0.4333333333333333 0.2333333333333333 0  0.4666666666666667 0.2333333333333333 0  0.5 0.2333333333333333 0  0.5333333333333333 0.2333333333333333 0  0.5666666666666667 0.2333333333333333 0  0.6 0.2333333333333333 0  0.6333333333333333 0.2333333333333333 0  0.6666666666666666 0.2333333333333333 0  0.7 0.2333333333333333 0  0.7333333333333333 0.2333333333333333 0  0.7666666666666667 0.2333333333333333 0  0.8 0.2333333333333333 0  0.8333333333333334 0.2333333333333333 0  0.8666666666666667 0.2333333333333333 0  0.9 0.2333333333333333 0  0.9333333333333333 0.2333333333333333 0  0.9666666666666667 0.2333333333333333 0  1 0.2333333333333333 0  0 0.2666666666666667 0  0.03333333333333333 0.2666666666666667 0  0.06666666666666667 0.2666666666666667 0  0.1 0.2666666666666667 0  0.1333333333333333 0.2666666666666667 0  0.1666666666666667 0.2666666666666667 0  0.2 0.2666666666666667 0  0.2333333333333333 0.2666666666666667 0  0.2666666666666667 0.2666666666666667 0  0.3 0.2666666666666667 0  0.3333333333333333 0.2666666666666667 0  0.3666666666666666 0.2666666666666667 0  0.4 0.2666666666666667 0  0.4333333333333333 0.2666666666666667 0  0.4666666666666667 0.2666666666666667 0  0.5 0.2666666666666667 0  0.5333333333333333 0.2666666666666667 0  0.5666666666666667 0.2666666666666667 0  0.6 0.2666666666666667 0  0.6333333333333333 0.2666666666666667 0  0.6666666666666666 0.2666666666666667 0  0.7 0.2666666666666667 0  0.7333333333333333 0.2666666666666667 0  0.7666666666666667 0.2666666666666667 0  0.8 0.2666666666666667 0  0.8333333333333334 0.2666666666666667 0  0.8666666666666667 0.2666666666666667 0  0.9 0.2666666666666667 0  0.9333333333333333 0.2666666666666667 0  0.9666666666666667 0.2666666666666667 0  1 0.2666666666666667 0  0 0.3 0  0.03333333333333333 0.3 0  0.06666666666666667 0.3 0  0.1 0.3 0  0.1333333333333333 0.3 0  0.1666666666666667 0.3 0  0.2 0.3 0  0.2333333333333333 0.3 0  0.2666666666666667 0.3 0  0.3 0.3 0  0.3333333333333333 0.3 0  0.3666666666666666 0.3 0  0.4 0.3 0  0.4333333333333333 0.3 0  0.4666666666666667 0.3 0  0.5 0.3 0  0.5333333333333333 0.3 0  0.5666666666666667 0.3 0  0.6 0.3 0  0.6333333333333333 0.3 0  0.6666666666666666 0.3 0  0.7 0.3 0  0.7333333333333333 0.3 0  0.7666666666666667 0.3 0  0.8 0.3 0  0.8333333333333334 0.3 0  0.8666666666666667 0.3 0  0.9 0.3 0  0.9333333333333333 0.3 0  0.9666666666666667 0.3 0  1 0.3 0  0 0.3333333333333333 0  0.03333333333333333 0.3333333333333333 0  0.06666666666666667 0.3333333333333333 0  0.1 0.3333333333333333 0  0.1333333333333333 0.3333333333333333 0  0.1666666666666667 0.3333333333333333 0  0.2 0.3333333333333333 0  0.2333333333333333 0.3333333333333333 0  0.2666666666666667 0.3333333333333333 0  0.3 0.3333333333333333 0  0.3333333333333333 0.3333333333333333 0  0.3666666666666666 0.3333333333333333 0  0.4 0.3333333333333333 0  0.4333333333333333 0.3333333333333333 0  0.4666666666666667 0.3333333333333333 0  0.5 0.3333333333333333 0  0.5333333333333333 0.33333333333333
[...]
<PointData  Vectors="u_f"> 
<DataArray  type="Float64"  Name="u_f"  NumberOfComponents="3" format="ascii">2.7082923582209947e-06 -2.4538224184782881e-09 0.0000000000000000e+00  2.7082923579387769e-06 -2.4538196000405306e-09 0.0000000000000000e+00  2.7082923610239826e-06 -2.4538190916581319e-09 0.0000000000000000e+00  2.7082923591587212e-06 -2.4538212031418628e-09 0.0000000000000000e+00  2.7082923597791559e-06 -2.4538214713734803e-09 0.0000000000000000e+00  2.7082923585973755e-06 -2.4538218717693426e-09 0.0000000000000000e+00  2.7082923595477329e-06 -2.4538211758199681e-09 0.0000000000000000e+00  2.7082923596734461e-06 -2.4538207242497632e-09 0.0000000000000000e+00  2.7082923594637614e-06 -2.4538207566131981e-09 0.0000000000000000e+00  2.7082923595026301e-06 -2.4538208451925156e-09 0.0000000000000000e+00  2.7082923592546188e-06 -2.4538208260563472e-09 0.0000000000000000e+00  2.7082923569498219e-06 -2.4538254691521509e-09 0.0000000000000000e+00  2.7082923576444702e-06 -2.4538214598809373e-09 0.0000000000000000e+00  2.7082923597952563e-06 -2.4538211381439426e-09 0.0000000000000000e+00  2.7082923595248020e-06 -2.4538207722799195e-09 0.0000000000000000e+00  2.7082923594794282e-06 -2.4538207421933092e-09 0.0000000000000000e+00  2.7082923594827350e-06 -2.4538207520053389e-09 0.0000000000000000e+00  2.7082923594768261e-06 -2.4538207554747858e-09 0.0000000000000000e+00  2.7082923594851202e-06 -2.4538207656662862e-09 0.0000000000000000e+00  2.7082923594837108e-06 -2.4538207700573050e-09 0.0000000000000000e+00  2.7082923593645027e-06 -2.4538205327254495e-09 0.0000000000000000e+00  2.7082923603083549e-06 -2.4538220613963026e-09 0.0000000000000000e+00  2.7082923586083801e-06 -2.4538207285865719e-09 0.0000000000000000e+00  2.7082923622472879e-06 -2.4538195613345130e-09 0.0000000000000000e+00  2.7082923593701948e-06 -2.4538207870792791e-09 0.0000000000000000e+00  2.7082923594724351e-06 -2.4538207542279533e-09 0.0000000000000000e+00  2.7082923594852829e-06 -2.4538207665878581e-09 0.0000000000000000e+00  2.7082923594765008e-06 -2.4538207516800782e-09 0.0000000000000000e+00  2.7082923594502089e-06 -2.4538207241955531e-09 0.0000000000000000e+00  2.7082923595544550e-06 -2.4538207191540130e-09 0.0000000000000000e+00  2.7082923582210489e-06 5.5373130967151733e-10 0.0000000000000000e+00  4.1704894920882487e-04 -4.8894806013244710e-09 0.0000000000000000e+00  4.1704894921006769e-04 -4.8894807897588086e-09 0.0000000000000000e+00  4.1704894921017503e-04 -4.8894769611156769e-09 0.0000000000000000e+00  4.1704894921200668e-04 -4.8894774608244582e-09 0.0000000000000000e+00  4.1704894921001175e-04 -4.8894816991875908e-09 0.0000000000000000e+00  4.1704894920910969e-04 -4.8894805593658469e-09 0.0000000000000000e+00  4.1704894921104326e-04 -4.8894782494731184e-09 0.0000000000000000e+00  4.1704894920960940e-04 -4.8894811294393492e-09 0.0000000000000000e+00  4.1704894920992100e-04 -4.8894808437520768e-09 0.0000000000000000e+00  4.1704894921000925e-04 -4.8894807594011477e-09 0.0000000000000000e+00  4.1704894921009501e-04 -4.8894815956462834e-09 0.0000000000000000e+00  4.1704894920777417e-04 -4.8894823661887674e-09 0.0000000000000000e+00  4.1704894920722177e-04 -4.8894817608786945e-09 0.0000000000000000e+00  4.1704894921010998e-04 -4.8894808416920926e-09 0.0000000000000000e+00  4.1704894920993260e-04 -4.8894810347884995e-09 0.0000000000000000e+00  4.1704894920990550e-04 -4.8894810464978830e-09 0.0000000000000000e+00  4.1704894920990929e-04 -4.8894810470399841e-09 0.0000000000000000e+00  4.1704894920991048e-04 -4.8894810460642021e-09 0.0000000000000000e+00  4.1704894920991005e-04 -4.8894810455221011e-09 0.0000000000000000e+00  4.1704894920990810e-04 -4.8894810420526541e-09 0.0000000000000000e+00  4.1704894920989596e-04 -4.8894810318611537e-09 0.0000000000000000e+00  4.1704894921003679e-04 -4.8894809902277903e-09 0.0000000000000000e+00  4.1704894921131312e-04 -4.8894768056410853e-09 0.0000000000000000e+00  4.1704894921144528e-04 -4.8894801060609186e-09 0.0000000000000000e+00  4.1704894920987254e-04 -4.8894810894322890e-09 0.0000000000000000e+00  4.1704894920990506e-04 -4.8894810457389415e-09 0.0000000000000000e+00  4.1704894920991092e-04 -4.8894810450884202e-09 0.0000000000000000e+00  4.1704894920990354e-04 -4.8894810421610743e-09 0.0000000000000000e+00  4.1704894920994572e-04 -4.8894809227904151e-09 0.0000000000000000e+00  4.1704894921000698e-04 -4.8894811904799315e-09 0.0000000000000000e+00  4.1704894920882509e-04 2.2386058178951148e-09 0.0000000000000000e+00  7.5927804723404280e-04 -6.4976917159504169e-09 0.0000000000000000e+00  7.5927804723336192e-04 -6.4976925138147956e-09 0.0000000000000000e+00  7.5927804723321837e-04 -6.4976948419221206e-09 0.0000000000000000e+00  7.5927804723266456e-04 -6.4976934893799104e-09 0.0000000000000000e+00  7.5927804723357388e-04 -6.4976929096570088e-09 0.0000000000000000e+00  7.5927804723186778e-04 -6.4976960991629598e-09 0.0000000000000000e+00  7.5927804723204451e-04 -6.4976948617630204e-09 0.0000000000000000e+00  7.5927804723299784e-04 -6.4976923301509476e-09 0.0000000000000000e+00  7.5927804723312329e-04 -6.4976923392582459e-09 0.0000000000000000e+00  7.5927804723262488e-04 -6.4976928712762519e-09 0.0000000000000000e+00  7.5927804723359470e-04 -6.4976903476872752e-09 0.0000000000000000e+00  7.5927804723157602e-04 -6.4976971225413904e-09 0.0000000000000000e+00  7.5927804723088387e-04 -6.4976970784143620e-09 0.0000000000000000e+00  7.5927804723237811e-04 -6.4976940456840451e-09 0.0000000000000000e+00  7.5927804723297649e-04 -6.4976923919504714e-09 0.0000000000000000e+00  7.5927804723303807e-04 -6.4976922588104447e-09 0.0000000000000000e+00  7.5927804723305726e-04 -6.4976922558830988e-09 0.0000000000000000e+00  7.5927804723305639e-04 -6.4976922564251999e-09 0.0000000000000000e+00  7.5927804723305607e-04 -6.4976922566420403e-09 0.0000000000000000e+00  7.5927804723305498e-04 -6.4976922552325775e-09 0.0000000000000000e+00  7.5927804723305238e-04 -6.4976922500284071e-09 0.0000000000000000e+00  7.5927804723323756e-04 -6.4976922737724346e-09 0.0000000000000000e+00  7.5927804723371873e-04 -6.4976882897631316e-09 0.0000000000000000e+00  7.5927804723514413e-04 -6.4976951294525367e-09 0.0000000000000000e+00  7.5927804723244078e-04 -6.4976925643386169e-09 0.0000000000000000e+00  7.5927804723307916e-04 -6.4976922494863060e-09 0.0000000000000000e+00  7.5927804723305574e-04 -6.4976922492694655e-09 0.0000000000000000e+00  7.5927804723308035e-04 -6.4976923501002676e-09 0.0000000000000000e+00  7.5927804723276680e-04 -6.4976934358203231e-09 0.0000000000000000e+00  7.5927804723287121e-04 -6.4976927252342193e-09 0.0000000000000000e+00  7.5927804723404302e-04 3.5452605434543490e-09 0.0000000000000000e+00  9.7022106943510616e-04 -6.9879741220954528e-09 0.0000000000000000e+00  9.7022106943546026e-04 -6.9879751249824623e-09 0.0000000000000000e+00  9.7022106943520309e-04 -6.9879747567874045e-09 0.0000000000000000e+00  9.7022106943569467e-04 -6.9879709974247917e-09 0.0000000000000000e+00  9.7022106943640894e-04 -6.9879716052285296e-09 0.0000000000000000e+00  9.7022106943453587e-04 -6.9879702176665892e-09 0.0000000000000000e+00  9.7022106943629922e-04 -6.9879704841634832e-09 0.0000000000000000e+00  9.7022106943600193e-04 -6.9879708705731375e-09 0.0000000000000000e+00  9.7022106943605267e-04 -6.9879709807280782e-09 0.0000000000000000e+00  9.7022106943613377e-04 -6.9879714937725462e-09 0.0000000000000000e+00  9.7022106943552336e-04 -6.9879693908540125e-09 0.0000000000000000e+00  9.7022106943356681e-04 -6.9879699110542148e-09 0.0000000000000000e+00  9.7022106943829849e-04 -6.9879703939578625e-09 0.0000000000000000e+00  9.7022106943481516e-04 -6.9879694411609933e-09 0.0000000000000000e+00  9.7022106943468137e-04 -6.9879714805452797e-09 0.0000000000000000e+00  9.7022106943602318e-04 -6.9879709360589487e-09 0.0000000000000000e+00  9.7022106943604530e-04 -6.9879709306379378e-09 0.0000000000000000e+00  9.7022106943602882e-04 -6.9879709369263104e-09 0.0000000000000000e+00  9.7022106943603077e-04 -6.9879709360589487e-09 0.0000000000000000e+00  9.7022106943602990e-04 -6.9879709321558209e-09 0.0000000000000000e+00  9.7022106943605853e-04 -6.9879709820291208e-09 0.0000000000000000e+00  9.7022106943580547e-04 -6.9879706519979795e-09 0.0000000000000000e+00  9.7022106943654165e-04 -6.9879690512818921e-09 0.0000000000000000e+00  9.7022106943693868e-04 -6.9879698679029684e-09 0.0000000000000000e+00  9.7022106943579940e-04 -6.9879709707534182e-09 0.0000000000000000e+00  9.7022106943598307e-04 -6.9879709505872578e-09 0.0000000000000000e+00  9.7022106943602687e-04 -6.9879709176275118e-09 0.0000000000000000e+00  9.7022106943609300e-04 -6.9879709414799596e-09 0.0000000000000000e+00  9.7022106943615524e-04 -6.9879715917844226e-09 0.0000000000000000e+00  9.7022106943507993e-04 -6.9879691601357902e-09 0.0000000000000000e+00  9.7022106943510616e-04 4.2453747741905873e-09 0.0000000000000000e+00  1.0134040559912415e-03 -6.2607569487884915e-09 0.0000000000000000e+00  1.0134040559937876e-03 -6.2607555060406606e-09 0.0000000000000000e+00  1.0134040559936592e-03 -6.2607568850374037e-09 0.0000000000000000e+00  1.0134040559957279e-03 -6.2607571235618817e-09 0.0000000000000000e+00  1.0134040559949032e-03 -6.2607549489775843e-09 0.0000000000000000e+00  1.0134040559928957e-03 -6.2607556110998511e-09 0.0000000000000000e+00  1.0134040559960041e-03 -6.2607571541363830e-09 0.0000000000000000e+00  1.0134040559943223e-03 -6.2607543739167520e-09 0.0000000000000000e+00  1.0134040559955427e-03 -6.2607536701611219e-09 0.0000000000000000e+00  1.0134040559956286e-03 -6.2607539145402916e-09 0.0000000000000000e+00  1.0134040559956104e-03 -6.2607556788624869e-09 0.0000000000000000e+00  1.0134040559908451e-03 -6.2607548351363562e-09 0.0000000000000000e+00  1.0134040559979139e-03 -6.2607560310113525e-09 0.0000000000000000e+00  1.0134040559947599e-03 -6.2607558060394017e-09 0.0000000000000000e+00  1.0134040559947382e-03 -6.2607541653162541e-09 0.0000000000000000e+00  1.0134040559955215e-03 -6.2607538681364386e-09 0.0000000000000000e+00  1.0134040559954534e-03 -6.2607539002288229e-09 0.0000000000000000e+00  1.0134040559954566e-03 -6.2607538986025196e-09 0.0000000000000000e+00  1.0134040559954568e-03 -6.2607538978435781e-09 0.0000000000000000e+00  1.0134040559954573e-03 -6.2607539030477485e-09 0.0000000000000000e+00  1.0134040559954291e-03 -6.2607538345261712e-09 0.0000000000000000e+00  1.0134040559957997e-03 -6.2607541672678180e-09 0.0000000000000000e+00  1.0134040559933945e-03 -6.2607565164086651e-09 0.0000000000000000e+00  1.0134040559957409e-03 -6.2607571810245968e-09 0.0000000000000000e+00  1.0134040559943349e-03 -6.2607541827719090e-09 0.0000000000000000e+00  1.0134040559955184e-03 -6.2607538592459808e-09 0.0000000000000000e+00  1.0134040559954568e-03 -6.2607538809300242e-09 0.0000000000000000e+00  1.0134040559955202e-03 -6.2607536955314527e-09 0.0000000000000000e+00  1.0134040559956000e-03 -6.2607538527407677e-09 0.0000000000000000e+00  1.0134040559961041e-03 -6.2607563957369633e-09 0.0000000000000000e+00  1.0134040559912419e-03 4.2116576290805667e-09 0.0000000000000000e+00  8.8136027989858617e-04 -4.4344197408030875e-09 0.0000000000000000e+00  8.8136027989797576e-04 -4.4344192967138776e-09 0.0000000000000000e+00  8.8136027989825819e-04 -4.4344215103294532e-09 0.0000000000000000e+00  8.8136027989616861e-04 -4.4344226289008346e-09 0.0000000000000000e+00  8.8136027989746044e-04 -4.4344238597955610e-09 0.0000000000000000e+00  8.8136027989634729e-04 -4.4344232801810796e-09 0.0000000000000000e+00  8.8136027989883174e-04 -4.4344211770457054e-09 0.0000000000000000e+00  8.8136027989766459e-04 -4.4344215085947297e-09 0.0000000000000000e+00  8.8136027989762881e-04 -4.4344230700626985e-09 0.0000000000000000e+00  8.8136027989741197e-04 -4.4344233320059434e-09 0.0000000000000000e+00  8.8136027989730410e-04 -4.4344229054808088e-09 0.0000000000000000e+00  8.8136027989832834e-04 -4.4344165119405976e-09 0.0000000000000000e+00  8.8136027989893506e-04 -4.4344210331720771e-09 0.0000000000000000e+00  8.8136027989728794e-04 -4.4344230780857946e-09 0.0000000000000000e+00  8.8136027989755411e-04 -4.4344232188152366e-09 0.0000000000000000e+00  8.8136027989734519e-04 -4.4344233400290395e-09 0.0000000000000000e+00  8.8136027989734898e-04 -4.4344233352585499e-09 0.0000000000000000e+00  8.8136027989735104e-04 -4.4344233350417095e-09 0.0000000000000000e+00  8.8136027989735018e-04 -4.4344233349332893e-09 0.0000000000000000e+00  8.8136027989735375e-04 -4.4344233317891030e-09 0.0000000000000000e+00  8.8136027989733402e-04 -4.4344233873002542e-09 0.0000000000000000e+00  8.8136027989735267e-04 -4.4344234035632868e-09 0.0000000000000000e+00  8.8136027989700572e-04 -4.4344212222569360e-09 0.0000000000000000e+00  8.8136027989824009e-04 -4.4344216225443780e-09 0.0000000000000000e+00  8.8136027989722191e-04 -4.4344232267299125e-09 0.0000000000000000e+00  8.8136027989756604e-04 -4.4344232439687270e-09 0.0000000000000000e+00  8.8136027989734616e-04 -4.4344233341743478e-09 0.0000000000000000e+00  8.8136027989730345e-04 -4.4344232110089810e-09 0.0000000000000000e+00  8.8136027989743745e-04 -4.4344232510160411e-09 0.0000000000000000e+00  8.8136027989724815e-04 -4.4344229905906793e-09 0.0000000000000000e+00  8.8136027989858660e-04 3.4439978987451433e-09 0.0000000000000000e+00  5.9692130945846952e-04 -1.8296745441979088e-09 0.0000000000000000e+00  5.9692130946067110e-04 -1.8296750482977089e-09 0.0000000000000000e+00  5.9692130946006438e-04 -1.8296738133914345e-09 0.0000000000000000e+00  5.9692130946228700e-04 -1.8296711472298721e-09 0.0000000000000000e+00  5.9692130946168256e-04 -1.8296719849928908e-09 0.0000000000000000e+00  5.9692130945729663e-04 -1.8296709223663415e-09 0.0000000000000000e+00  5.9692130946316824e-04 -1.8296735940031249e-09 0.0000000000000000e+00  5.9692130946003923e-04 -1.8296714952587695e-09 0.0000000000000000e+00  5.9692130946109243e-04 -1.8296706668740996e-09 0.0000000000000000e+00  5.9692130946101241e-04 -1.8296707628259919e-09 0.0000000000000000e+00  5.9692130946157598e-04 -1.8296708568263202e-09 0.0000000000000000e+00  5.9692130945900664e-04 -1.8296716659664015e-09 0.0000000000000000e+00  5.9692130946385486e-04 -1.8296743576609251e-09 0.0000000000000000e+00  5.9692130946003392e-04 -1.8296709645418061e-09 0.0000000000000000e+00  5.9692130946102802e-04 -1.8296706618325595e-09 0.0000000000000000e+00  5.9692130946091158e-04 -1.8296706938707337e-09 0.0000000000000000e+00  5.9692130946091744e-04 -1.8296706911602283e-09 0.0000000000000000e+00  5.9692130946091744e-04 -1.8296706906181272e-09 0.0000000000000000e+00  5.9692130946091939e-04 -1.8296706932744225e-09 0.0000000000000000e+00  5.9692130946090161e-04 -1.8296706714277487e-09 0.0000000000000000e+00  5.9692130946096969e-04 -1.8296707061222182e-09 0.0000000000000000e+00  5.9692130946178697e-04 -1.8296717211522921e-09 0.0000000000000000e+00  5.9692130945909196e-04 -1.8296715740802674e-09 0.0000000000000000e+00  5.9692130946246784e-04 -1.8296739833401250e-09 0.0000000000000000e+00  5.9692130945983692e-04 -1.8296710233597739e-09 0.0000000000000000e+00  5.9692130946105101e-04 -1.8296706547852454e-09 0.0000000000000000e+00  5.9692130946090985e-04 -1.8296706932202124e-09 0.0000000000000000e+00  5.9692130946091613e-04 -1.8296706996712153e-09 0.0000000000000000e+00  5.9692130946097403e-04 -1.8296706894797149e-09 0.0000000000000000e+00  5.9692130946194548e-04 -1.8296721180787075e-09 0.0000000000000000e+00  5.9692130945846963e-04 2.0734065252810825e-09 0.0000000000000000e+00  2.0926922283977294e-04 1.0891498943780675e-09 0.0000000000000000e+00  2.0926922283657313e-04 1.0891487480240054e-09 0.0000000000000000e+00  2.0926922284134248e-04 1.0891498838342013e-09 0.0000000000000000e+00  2.0926922283849136e-04 1.0891485667182971e-09 0.0000000000000000e+00  2.0926922284018689e-04 1.0891524958534177e-09 0.0000000000000000e+00  2.0926922283960752e-04 1.0891506388725943e-09 0.0000000000000000e+00  2.0926922283890482e-04 1.0891510829753566e-09 0.0000000000000000e+00  2.0926922284211460e-04 1.0891504092927842e-09 0.0000000000000000e+00  2.0926922284008828e-04 1.0891501968840261e-09 0.0000000000000000e+00  2.0926922284019323e-04 1.0891504624593483e-09 0.0000000000000000e+00  2.0926922284007803e-04 1.0891529647030947e-09 0.0000000000000000e+00  2.0926922283847680e-04 1.0891487960270566e-09 0.0000000000000000e+00  2.0926922283955404e-04 1.0891515549285623e-09 0.0000000000000000e+00  2.0926922284168878e-04 1.0891503962145955e-09 0.0000000000000000e+00  2.0926922284014937e-04 1.0891502315784956e-09 0.0000000000000000e+00  2.0926922284025541e-04 1.0891502915077707e-09 0.0000000000000000e+00  2.0926922284026354e-04 1.0891502942453812e-09 0.0000000000000000e+00  2.0926922284026202e-04 1.0891502931882841e-09 0.0000000000000000e+00  2.0926922284026083e-04 1.0891502951262955e-09 0.0000000000000000e+00  2.0926922284026435e-04 1.0891502904506736e-09 0.0000000000000000e+00  2.0926922284031683e-04 1.0891502001366326e-09 0.0000000000000000e+00  2.0926922283934598e-04 1.0891518320506376e-09 0.0000000000000000e+00  2.0926922284038706e-04 1.0891499303464745e-09 0.0000000000000000e+00  2.0926922283892336e-04 1.0891510911475305e-09 0.0000000000000000e+00  2.0926922284211173e-04 1.0891503952659186e-09 0.0000000000000000e+00  2.0926922284007546e-04 1.0891502152748055e-09 0.0000000000000000e+00  2.0926922284025942e-04 1.0891502940014357e-09 0.0000000000000000e+00  2.0926922284026609e-04 1.0891502840674333e-09 0.0000000000000000e+00  2.0926922284027612e-04 1.0891503140320708e-09 0.0000000000000000e+00  2.0926922283967766e-04 1.0891531874253259e-09 0.0000000000000000e+00  2.0926922283977297e-04 3.4050441270700482e-10 0.0000000000000000e+00  -2.1456741751901614e-04 3.8035954743904227e-09 0.0000000000000000e+00  -2.1456741751928329e-04 3.8035966659286102e-09 0.0000000000000000e+00  -2.1456741751762375e-04 3.8035959609803577e-09 0.0000000000000000e+00  -2.1456741751791448e-04 3.8035963529736531e-09 0.0000000000000000e+00  -2.1456741751829954e-04 3.8035943687210472e-09 0.0000000000000000e+00  -2.1456741752043043e-04 3.8035953712285860e-09 0.0000000000000000e+00  -2.1456741751668603e-04 3.8035961575462116e-09 0.0000000000000000e+00  -2.1456741751850369e-04 3.8035948363916543e-09 0.0000000000000000e+00  -2.1456741751857303e-04 3.8035945933677373e-09 0.0000000000000000e+00  -2.1456741751861705e-04 3.8035947479749671e-09 0.0000000000000000e+00  -2.1456741751952241e-04 3.8035965487805655e-09 0.0000000000000000e+00  -2.1456741751882467e-04 3.8035950393000909e-09 0.0000000000000000e+00  -2.1456741751831992e-04 3.8035981287883915e-09 0.0000000000000000e+00  -2.1456741751563278e-04 3.8035959433078623e-09 0.0000000000000000e+00  -2.1456741751868150e-04 3.8035945903861813e-09 0.0000000000000000e+00  -2.1456741751853985e-04 3.8035946402052712e-09 0.0000000000000000e+00  -2.1456741751852711e-04 3.8035946441083990e-09 0.0000000000000000e+00  -2.1456741751853031e-04 3.8035946431326170e-09 0.0000000000000000e+00  -2.1456741751853112e-04 3.8035946440541889e-09 0.0000000000000000e+00  -2.1456741751852061e-04 3.8035946321279650e-09 0.0000000000000000e+00  -2.1456741751859287e-04 3.8035947512275736e-09 0.0000000000000000e+00  -2.1456741751847409e-04 3.8035943009584114e-09 0.0000000000000000e+00  -2.1456741752062857e-04 3.8035944853269908e-09 0.0000000000000000e+00  -2.1456741751743180e-04 3.8035959090470736e-09 0.0000000000000000e+00  -2.1456741751845994e-04 3.8035948361206037e-09 0.0000000000000000e+00  -2.1456741751859357e-04 3.8035946238338184e-09 0.0000000000000000e+00  -2.1456741751852782e-04 3.8035946488246784e-09 0.0000000000000000e+00  -2.1456741751851112e-04 3.8035946206354219e-09 0.0000000000000000e+00  -2.1456741751858994e-04 3.8035946885064779e-09 0.0000000000000000e+00  -2.1456741751963945e-04 3.8035964515276306e-09 0.0000000000000000e+00  -2.1456741751901630e-04 -1.4484875238831356e-09 0.0000000000000000e+00  -6.0130340892336769e-04 5.8398693544804356e-09 0.0000000000000000e+00  -6.0130340892185880e-04 5.8398696061237598e-09 0.00