<?xml version="1.0"?>
<VTKFile type="UnstructuredGrid"  version="0.1"  >
<UnstructuredGrid>
<Piece  NumberOfPoints="961" NumberOfCells="1800">
<Points>
<DataArray  type="Float64"  NumberOfComponents="3"  format="ascii">0 0 0  0.03333333333333333 0 0  0.06666666666666667 0 0  0.1 0 0  0.1333333333333333 0 0  0.1666666666666667 0 0  0.2 0 0  0.2333333333333333 0 0  0.2666666666666667 0 0  0.3 0 0  0.3333333333333333 0 0  0.3666666666666666 0 0  0.4 0 0  0.4333333333333333 0 0  0.4666666666666667 0 0  0.5 0 0  0.5333333333333333 0 0  0.5666666666666667 0 0  0.6 0 0  0.6333333333333333 0 0  0.6666666666666666 0 0  0.7 0 0  0.7333333333333333 0 0  0.7666666666666667 0 0  0.8 0 0  0.8333333333333334 0 0  0.8666666666666667 0 0  0.9 0 0  0.9333333333333333 0 0  0.9666666666666667 0 0  1 0 0  0 0.03333333333333333 0  0.03333333333333333 0.03333333333333333 0  0.06666666666666667 0.03333333333333333 0  0.1 0.03333333333333333 0  0.1333333333333333 0.03333333333333333 0  0.1666666666666667 0.03333333333333333 0  0.2 0.03333333333333333 0  0.2333333333333333 0.03333333333333333 0  0.2666666666666667 0.03333333333333333 0  0.3 0.03333333333333333 0  0.3333333333333333 0.03333333333333333 0  0.3666666666666666 0.03333333333333333 0  0.4 0.03333333333333333 0  0.4333333333333333 0.03333333333333333 0  0.4666666666666667 0.03333333333333333 0  0.5 0.03333333333333333 0  0.5333333333333333 0.03333333333333333 0  0.5666666666666667 0.03333333333333333 0  0.6 0.03333333333333333 0  0.6333333333333333 0.03333333333333333 0  0.6666666666666666 0.03333333333333333 0  0.7 0.03333333333333333 0  0.7333333333333333 0.03333333333333333 0  0.7666666666666667 0.03333333333333333 0  0.8 0.03333333333333333 0  0.8333333333333334 0.03333333333333333 0  0.8666666666666667 0.03333333333333333 0  0.9 0.03333333333333333 0  0.9333333333333333 0.03333333333333333 0  0.9666666666666667 0.03333333333333333 0  1 0.03333333333333333 0  0 0.06666666666666667 0  0.03333333333333333 0.06666666666666667 0  0.06666666666666667 0.06666666666666667 0  0.1 0.06666666666666667 0  0.1333333333333333 0.06666666666666667 0  0.1666666666666667 0.06666666666666667 0  0.2 0.06666666666666667 0  0.2333333333333333 0.06666666666666667 0  0.2666666666666667 0.06666666666666667 0  0.3 0.06666666666666667 0  0.3333333333333333 0.06666666666666667 0  0.3666666666666666 0.06666666666666667 0  0.4 0.06666666666666667 0  0.4333333333333333 0.06666666666666667 0  0.4666666666666667 0.06666666666666667 0  0.5 0.06666666666666667 0  0.5333333333333333 0.06666666666666667 0  0.5666666666666667 0.06666666666666667 0  0.6 0.06666666666666667 0  0.6333333333333333 0.06666666666666667 0  0.6666666666666666 0.06666666666666667 0  0.7 0.06666666666666667 0  0.7333333333333333 0.06666666666666667 0  0.7666666666666667 0.06666666666666667 0  0.8 0.06666666666666667 0  0.8333333333333334 0.06666666666666667 0  0.8666666666666667 0.06666666666666667 0  0.9 0.06666666666666667 0  0.9333333333333333 0.06666666666666667 0  0.9666666666666667 0.06666666666666667 0  1 0.06666666666666667 0  0 0.1 0  0.03333333333333333 0.1 0  0.06666666666666667 0.1 0  0.1 0.1 0  0.1333333333333333 0.1 0  0.1666666666666667 0.1 0  0.2 0.1 0  0.2333333333333333 0.1 0  0.2666666666666667 0.1 0  0.3 0.1 0  0.3333333333333333 0.1 0  0.3666666666666666 0.1 0  0.4 0.1 0  0.4333333333333333 0.1 0  0.4666666666666667 0.1 0  0.5 0.1 0  0.5333333333333333 0.1 0  0.5666666666666667 0.1 0  0.6 0.1 0  0.6333333333333333 0.1 0  0.6666666666666666 0.1 0  0.7 0.1 0  0.7333333333333333 0.1 0  0.7666666666666667 0.1 0  0.8 0.1 0  0.8333333333333334 0.1 0  0.8666666666666667 0.1 0  0.9 0.1 0  0.9333333333333333 0.1 0  0.9666666666666667 0.1 0  1 0.1 0  0 0.1333333333333333 0  0.03333333333333333 0.1333333333333333 0  0.06666666666666667 0.1333333333333333 0  0.1 0.1333333333333333 0  0.1333333333333333 0.1333333333333333 0  0.1666666666666667 0.1333333333333333 0  0.2 0.1333333333333333 0  0.2333333333333333 0.1333333333333333 0  0.2666666666666667 0.1333333333333333 0  0.3 0.1333333333333333 0  0.3333333333333333 0.1333333333333333 0  0.3666666666666666 0.1333333333333333 0  0.4 0.1333333333333333 0  0.4333333333333333 0.1333333333333333 0  0.4666666666666667 0.1333333333333333 0  0.5 0.1333333333333333 0  0.5333333333333333 0.1333333333333333 0  0.5666666666666667 0.1333333333333333 0  0.6 0.1333333333333333 0  0.6333333333333333 0.1333333333333333 0  0.6666666666666666 0.1333333333333333 0  0.7 0.1333333333333333 0  0.7333333333333333 0.1333333333333333 0  0.7666666666666667 0.1333333333333333 0  0.8 0.1333333333333333 0  0.8333333333333334 0.1333333333333333 0  0.8666666666666667 0.1333333333333333 0  0.9 0.1333333333333333 0  0.9333333333333333 0.1333333333333333 0  0.9666666666666667 0.1333333333333333 0  1 0.1333333333333333 0  0 0.1666666666666667 0  0.03333333333333333 0.1666666666666667 0  0.06666666666666667 0.1666666666666667 0  0.1 0.1666666666666667 0  0.1333333333333333 0.1666666666666667 0  0.1666666666666667 0.1666666666666667 0  0.2 0.1666666666666667 0  0.2333333333333333 0.1666666666666667 0  0.2666666666666667 0.1666666666666667 0  0.3 0.1666666666666667 0  0.3333333333333333 0.1666666666666667 0  0.3666666666666666 0.1666666666666667 0  0.4 0.1666666666666667 0  0.4333333333333333 0.1666666666666667 0  0.4666666666666667 0.1666666666666667 0  0.5 0.1666666666666667 0  0.5333333333333333 0.1666666666666667 0  0.5666666666666667 0.1666666666666667 0  0.6 0.1666666666666667 0  0.6333333333333333 0.1666666666666667 0  0.6666666666666666 0.1666666666666667 0  0.7 0.1666666666666667 0  0.7333333333333333 0.1666666666666667 0  0.7666666666666667 0.1666666666666667 0  0.8 0.1666666666666667 0  0.8333333333333334 0.1666666666666667 0  0.8666666666666667 0.1666666666666667 0  0.9 0.1666666666666667 0  0.9333333333333333 0.1666666666666667 0  0.9666666666666667 0.1666666666666667 0  1 0.1666666666666667 0  0 0.2 0  0.03333333333333333 0.2 0  0.06666666666666667 0.2 0  0.1 0.2 0  0.1333333333333333 0.2 0  0.1666666666666667 0.2 0  0.2 0.2 0  0.2333333333333333 0.2 0  0.2666666666666667 0.2 0  0.3 0.2 0  0.3333333333333333 0.2 0  0.3666666666666666 0.2 0  0.4 0.2 0  0.4333333333333333 0.2 0  0.4666666666666667 0.2 0  0.5 0.2 0  0.5333333333333333 0.2 0  0.5666666666666667 0.2 0  0.6 0.2 0  0.6333333333333333 0.2 0  0.6666666666666666 0.2 0  0.7 0.2 0  0.7333333333333333 0.2 0  0.7666666666666667 0.2 0  0.8 0.2 0  0.8333333333333334 0.2 0  0.8666666666666667 0.2 0  0.9 0.2 0  0.9333333333333333 0.2 0  0.9666666666666667 0.2 0  1 0.2 0  0 0.2333333333333333 0  0.03333333333333333 0.2333333333333333 0  0.06666666666666667 0.2333333333333333 0  0.1 0.2333333333333333 0  0.1333333333333333 0.2333333333333333 0  0.1666666666666667 0.2333333333333333 0  0.2 0.2333333333333333 0  0.2333333333333333 0.2333333333333333 0  0.2666666666666667 0.2333333333333333 0  0.3 0.2333333333333333 0  0.3333333333333333 0.2333333333333333 0  0.3666666666666666 0.2333333333333333 0  0.4 0.2333333333333333 0  0.4333333333333333 0.2333333333333333 0  0.4666666666666667 0.2333333333333333 0  0.5 0.2333333333333333 0  0.5333333333333333 0.2333333333333333 0  0.5666666666666667 0.2333333333333333 0  0.6 0.2333333333333333 0  0.6333333333333333 0.2333333333333333 0  0.6666666666666666 0.2333333333333333 0  0.7 0.2333333333333333 0  0.7333333333333333 0.2333333333333333 0  0.7666666666666667 0.2333333333333333 0  0.8 0.2333333333333333 0  0.8333333333333334 0.2333333333333333 0  0.8666666666666667 0.2333333333333333 0  0.9 0.2333333333333333 0  0.9333333333333333 0.2333333333333333 0  0.9666666666666667 0.2333333333333333 0  1 0.2333333333333333 0  0 0.2666666666666667 0  0.03333333333333333 0.2666666666666667 0  0.06666666666666667 0.2666666666666667 0  0.1 0.2666666666666667 0  0.1333333333333333 0.2666666666666667 0  0.1666666666666667 0.2666666666666667 0  0.2 0.2666666666666667 0  0.2333333333333333 0.2666666666666667 0  0.2666666666666667 0.2666666666666667 0  0.3 0.2666666666666667 0  0.3333333333333333 0.2666666666666667 0  0.3666666666666666 0.2666666666666667 0  0.4 0.2666666666666667 0  0.4333333333333333 0.2666666666666667 0  0.4666666666666667 0.2666666666666667 0  0.5 0.2666666666666667 0  0.5333333333333333 0.2666666666666667 0  0.5666666666666667 0.2666666666666667 0  0.6 0.2666666666666667 0  0.6333333333333333 0.2666666666666667 0  0.6666666666666666 0.2666666666666667 0  0.7 0.2666666666666667 0  0.7333333333333333 0.2666666666666667 0  0.7666666666666667 0.2666666666666667 0  0.8 0.2666666666666667 0  0.8333333333333334 0.2666666666666667 0  0.8666666666666667 0.2666666666666667 0  0.9 0.2666666666666667 0  0.9333333333333333 0.2666666666666667 0  0.9666666666666667 0.2666666666666667 0  1 0.2666666666666667 0  0 0.3 0  0.03333333333333333 0.3 0  0.06666666666666667 0.3 0  0.1 0.3 0  0.1333333333333333 0.3 0  0.1666666666666667 0.3 0  0.2 0.3 0  0.2333333333333333 0.3 0  0.2666666666666667 0.3 0  0.3 0.3 0  0.3333333333333333 0.3 0  0.3666666666666666 0.3 0  0.4 0.3 0  0.4333333333333333 0.3 0  0.4666666666666667 0.3 0  0.5 0.3 0  0.5333333333333333 0.3 0  0.5666666666666667 0.3 0  0.6 0.3 0  0.6333333333333333 0.3 0  0.6666666666666666 0.3 0  0.7 0.3 0  0.7333333333333333 0.3 0  0.7666666666666667 0.3 0  0.8 0.3 0  0.8333333333333334 0.3 0  0.8666666666666667 0.3 0  0.9 0.3 0  0.9333333333333333 0.3 0  0.9666666666666667 0.3 0  1 0.3 0  0 0.3333333333333333 0  0.03333333333333333 0.3333333333333333 0  0.06666666666666667 0.3333333333333333 0  0.1 0.3333333333333333 0  0.1333333333333333 0.3333333333333333 0  0.1666666666666667 0.3333333333333333 0  0.2 0.3333333333333333 0  0.2333333333333333 0.3333333333333333 0  0.2666666666666667 0.3333333333333333 0  0.3 0.3333333333333333 0  0.3333333333333333 0.3333333333333333 0  0.3666666666666666 0.3333333333333333 0  0.4 0.3333333333333333 0  0.4333333333333333 0.3333333333333333 0  0.4666666666666667 0.3333333333333333 0  0.5 0.3333333333333333 0  0.5333333333333333 0.33333333333333
[...]
<PointData  Scalars="q_f"> 
<DataArray  type="Float64"  Name="q_f"  format="ascii">9.9873977897074628e-01  9.9873977897081501e-01  9.9873977897078559e-01  9.9873977897076216e-01  9.9873977897080835e-01  9.9873977897093014e-01  9.9873977897079569e-01  9.9873977897084409e-01  9.9873977897078381e-01  9.9873977897087995e-01  9.9873977897091104e-01  9.9873977897091293e-01  9.9873977897300736e-01  9.9873977897100896e-01  9.9873977897068655e-01  9.9873977897087707e-01  9.9873977897075938e-01  9.9873977897075139e-01  9.9873977897074906e-01  9.9873977897073773e-01  9.9873977897080324e-01  9.9873977897082200e-01  9.9873977897064681e-01  9.9873977896854593e-01  9.9873977897063604e-01  9.9873977897071509e-01  9.9873977897077260e-01  9.9873977897058963e-01  9.9873977897080546e-01  9.9873977897068988e-01  9.9873977897074628e-01  9.9884873011938979e-01  9.9884873011950515e-01  9.9884873011939113e-01  9.9884873011944941e-01  9.9884873011922726e-01  9.9884873011941322e-01  9.9884873011933972e-01  9.9884873011940423e-01  9.9884873011939679e-01  9.9884873011936137e-01  9.9884873011957331e-01  9.9884873012154407e-01  9.9884873012145570e-01  9.9884873011944220e-01  9.9884873011935338e-01  9.9884873011936404e-01  9.9884873011932829e-01  9.9884873011939046e-01  9.9884873011944053e-01  9.9884873011931252e-01  9.9884873011925668e-01  9.9884873011920006e-01  9.9884873011716224e-01  9.9884873011722286e-01  9.9884873011934905e-01  9.9884873011942277e-01  9.9884873011940500e-01  9.9884873011932740e-01  9.9884873011934994e-01  9.9884873011931652e-01  9.9884873011938979e-01  9.9915674566985724e-01  9.9915674566978030e-01  9.9915674566988955e-01  9.9915674566990231e-01  9.9915674566999446e-01  9.9915674567002677e-01  9.9915674566984092e-01  9.9915674566979995e-01  9.9915674566997481e-01  9.9915674566997037e-01  9.9915674566992319e-01  9.9915674567239654e-01  9.9915674567179957e-01  9.9915674566999590e-01  9.9915674566992840e-01  9.9915674566975554e-01  9.9915674566987744e-01  9.9915674566999102e-01  9.9915674566987689e-01  9.9915674566983470e-01  9.9915674566976020e-01  9.9915674566980273e-01  9.9915674566744217e-01  9.9915674566798518e-01  9.9915674566975210e-01  9.9915674566990420e-01  9.9915674566996837e-01  9.9915674566995305e-01  9.9915674566995993e-01  9.9915674566984958e-01  9.9915674566985724e-01  9.9961056866538178e-01  9.9961056866531917e-01  9.9961056866536901e-01  9.9961056866524645e-01  9.9961056866537312e-01  9.9961056866536646e-01  9.9961056866520859e-01  9.9961056866527020e-01  9.9961056866528852e-01  9.9961056866529907e-01  9.9961056866539000e-01  9.9961056866752196e-01  9.9961056866511033e-01  9.9961056866534714e-01  9.9961056866537767e-01  9.9961056866518894e-01  9.9961056866535103e-01  9.9961056866541076e-01  9.9961056866523379e-01  9.9961056866528308e-01  9.9961056866523723e-01  9.9961056866503228e-01  9.9961056866310061e-01  9.9961056866543685e-01  9.9961056866520359e-01  9.9961056866525244e-01  9.9961056866536324e-01  9.9961056866529807e-01  9.9961056866531639e-01  9.9961056866545106e-01  9.9961056866538178e-01  1.0001317305206614e+00  1.0001317305206510e+00  1.0001317305206228e+00  1.0001317305205304e+00  1.0001317305205211e+00  1.0001317305205748e+00  1.0001317305205493e+00  1.0001317305206328e+00  1.0001317305204902e+00  1.0001317305205688e+00  1.0001317305206585e+00  1.0001317305206190e+00  1.0001317305205761e+00  1.0001317305206161e+00  1.0001317305205237e+00  1.0001317305204083e+00  1.0001317305206321e+00  1.0001317305206319e+00  1.0001317305205257e+00  1.0001317305206086e+00  1.0001317305204853e+00  1.0001317305204773e+00  1.0001317305204618e+00  1.0001317305206632e+00  1.0001317305204047e+00  1.0001317305206623e+00  1.0001317305205373e+00  1.0001317305205379e+00  1.0001317305205177e+00  1.0001317305205941e+00  1.0001317305206614e+00  1.0006301179399202e+00  1.0006301179399308e+00  1.0006301179400030e+00  1.0006301179399801e+00  1.0006301179399568e+00  1.0006301179399908e+00  1.0006301179399899e+00  1.0006301179398485e+00  1.0006301179399970e+00  1.0006301179399990e+00  1.0006301179399244e+00  1.0006301179399752e+00  1.0006301179400927e+00  1.0006301179398975e+00  1.0006301179399391e+00  1.0006301179399582e+00  1.0006301179399348e+00  1.0006301179399695e+00  1.0006301179400163e+00  1.0006301179398440e+00  1.0006301179399912e+00  1.0006301179399260e+00  1.0006301179400847e+00  1.0006301179398691e+00  1.0006301179398980e+00  1.0006301179399371e+00  1.0006301179399417e+00  1.0006301179399000e+00  1.0006301179398505e+00  1.0006301179399231e+00  1.0006301179399202e+00  1.0010195541414815e+00  1.0010195541415075e+00  1.0010195541415299e+00  1.0010195541414506e+00  1.0010195541415623e+00  1.0010195541416040e+00  1.0010195541415938e+00  1.0010195541416114e+00  1.0010195541414191e+00  1.0010195541415032e+00  1.0010195541416198e+00  1.0010195541416695e+00  1.0010195541414455e+00  1.0010195541416307e+00  1.0010195541415958e+00  1.0010195541414089e+00  1.0010195541415330e+00  1.0010195541415017e+00  1.0010195541414413e+00  1.0010195541415534e+00  1.0010195541414064e+00  1.0010195541415621e+00  1.0010195541415186e+00  1.0010195541414038e+00  1.0010195541415743e+00  1.0010195541415283e+00  1.0010195541416111e+00  1.0010195541416145e+00  1.0010195541415823e+00  1.0010195541415636e+00  1.0010195541414815e+00  1.0012327003346826e+00  1.0012327003345609e+00  1.0012327003346984e+00  1.0012327003347197e+00  1.0012327003347181e+00  1.0012327003346566e+00  1.0012327003347288e+00  1.0012327003345955e+00  1.0012327003346908e+00  1.0012327003346218e+00  1.0012327003347077e+00  1.0012327003347608e+00  1.0012327003346528e+00  1.0012327003347372e+00  1.0012327003345298e+00  1.0012327003346269e+00  1.0012327003345167e+00  1.0012327003344770e+00  1.0012327003345904e+00  1.0012327003344788e+00  1.0012327003346697e+00  1.0012327003346864e+00  1.0012327003347210e+00  1.0012327003346835e+00  1.0012327003346135e+00  1.0012327003346011e+00  1.0012327003345862e+00  1.0012327003347115e+00  1.0012327003346408e+00  1.0012327003348436e+00  1.0012327003346826e+00  1.0012327003348476e+00  1.0012327003348240e+00  1.0012327003347496e+00  1.0012327003347135e+00  1.0012327003346300e+00  1.0012327003348920e+00  1.0012327003349653e+00  1.0012327003348664e+00  1.0012327003348400e+00  1.0012327003347254e+00  1.0012327003348178e+00  1.0012327003348267e+00  1.0012327003346133e+00  1.0012327003346870e+00  1.0012327003348114e+00  1.0012327003347408e+00  1.0012327003346468e+00  1.0012327003346890e+00  1.0012327003347650e+00  1.0012327003347878e+00  1.0012327003346924e+00  1.0012327003349670e+00  1.0012327003349453e+00  1.0012327003348096e+00  1.0012327003347954e+00  1.0012327003347852e+00  1.0012327003348251e+00  1.0012327003348291e+00  1.0012327003347887e+00  1.0012327003347521e+00  1.0012327003348476e+00  1.0010195541417557e+00  1.0010195541418023e+00  1.0010195541415259e+00  1.0010195541416913e+00  1.0010195541416671e+00  1.0010195541415390e+00  1.0010195541417386e+00  1.0010195541416376e+00  1.0010195541417912e+00  1.0010195541416604e+00  1.0010195541416593e+00  1.0010195541415787e+00  1.0010195541417761e+00  1.0010195541417000e+00  1.0010195541417954e+00  1.0010195541416747e+00  1.0010195541416593e+00  1.0010195541417117e+00  1.0010195541415934e+00  1.0010195541416447e+00  1.0010195541417908e+00  1.0010195541417120e+00  1.0010195541415909e+00  1.0010195541416760e+00  1.0010195541417271e+00  1.0010195541416960e+00  1.0010195541416693e+00  1.0010195541416254e+00  1.0010195541416660e+00  1.0010195541418259e+00  1.0010195541417557e+00  1.0006301179397374e+00  1.0006301179395705e+00  1.0006301179397634e+00  1.0006301179395620e+00  1.0006301179397588e+00  1.0006301179397656e+00  1.0006301179400141e+00  1.0006301179399604e+00  1.0006301179398791e+00  1.0006301179397730e+00  1.0006301179399117e+00  1.0006301179399222e+00  1.0006301179398907e+00  1.0006301179398365e+00  1.0006301179399488e+00  1.0006301179399157e+00  1.0006301179398081e+00  1.0006301179399453e+00  1.0006301179399990e+00  1.0006301179399362e+00  1.0006301179397969e+00  1.0006301179397117e+00  1.0006301179399106e+00  1.0006301179398709e+00  1.0006301179399051e+00  1.0006301179400001e+00  1.0006301179397519e+00  1.0006301179398662e+00  1.0006301179398536e+00  1.0006301179397605e+00  1.0006301179397374e+00  1.0001317305205573e+00  1.0001317305186093e+00  1.0001317305182793e+00  1.0001317305183810e+00  1.0001317305206598e+00  1.0001317305208117e+00  1.0001317305208610e+00  1.0001317305207869e+00  1.0001317305210053e+00  1.0001317305207849e+00  1.0001317305208255e+00  1.0001317305206676e+00  1.0001317305206914e+00  1.0001317305207147e+00  1.0001317305207338e+00  1.0001317305207973e+00  1.0001317305208095e+00  1.0001317305208788e+00  1.0001317305208774e+00  1.0001317305207302e+00  1.0001317305207356e+00  1.0001317305208135e+00  1.0001317305208464e+00  1.0001317305208253e+00  1.0001317305209039e+00  1.0001317305207464e+00  1.0001317305207893e+00  1.0001317305207644e+00  1.0001317305207265e+00  1.0001317305209325e+00  1.0001317305205573e+00  9.9961056866313591e-01  9.9961056866306219e-01  9.9961056866323184e-01  9.9961056866552256e-01  9.9961056866526177e-01  9.9961056866531051e-01  9.9961056866516407e-01  9.9961056866519837e-01  9.9961056866521703e-01  9.9961056866534437e-01  9.9961056866517162e-01  9.9961056866531117e-01  9.9961056866518883e-01  9.9961056866527942e-01  9.9961056866520026e-01  9.9961056866524400e-01  9.9961056866527076e-01  9.9961056866519538e-01  9.9961056866520148e-01  9.9961056866536635e-01  9.9961056866523368e-01  9.9961056866524378e-01  9.9961056866520426e-01  9.9961056866526521e-01  9.9961056866517883e-01  9.9961056866526488e-01  9.9961056866524378e-01  9.9961056866520792e-01  9.9961056866527442e-01  9.9961056866513276e-01  9.9961056866313591e-01  9.9915674566963752e-01  9.9915674566980228e-01  9.9915674566981860e-01  9.9915674566995716e-01  9.9915674566978319e-01  9.9915674566990620e-01  9.9915674567002555e-01  9.9915674566986401e-01  9.9915674566973656e-01  9.9915674566995016e-01  9.9915674566996926e-01  9.9915674566996882e-01  9.9915674566993462e-01  9.9915674567000567e-01  9.9915674566995727e-01  9.9915674566993817e-01  9.9915674566988155e-01  9.9915674567004342e-01  9.9915674566991441e-01  9.9915674566993162e-01  9.9915674567001134e-01  9.9915674566985324e-01  9.9915674567006230e-01  9.9915674567002710e-01  9.9915674567004553e-01  9.9915674566990287e-01  9.9915674566998502e-01  9.9915674566990997e-01  9.9915674566988977e-01  9.9915674566997137e-01  9.9915674566963752e-01  9.9884873011935060e-01  9.9884873011932951e-01  9.9884873011940611e-01  9.9884873011924413e-01  9.9884873011940478e-01  9.9884873011941866e-01  9.9884873011933939e-01  9.9884873011930908e-01  9.9884873011939257e-01  9.9884873011941022e-01  9.9884873011930686e-01  9.9884873011941944e-01  9.9884873011924202e-01  9.9884873011943032e-01  9.9884873011924202e-01  9.9884873011937125e-01  9.9884873011927244e-01  9.9884873011937259e-01  9.9884873011914788e-01  9.9884873011943109e-01  9.9884873011922892e-01  9.9884873011930786e-01  9.9884873011936282e-01  9.9884873011923792e-01  9.9884873011930309e-01  9.9884873011936204e-01  9.9884873011927156e-01  9.9884873011927777e-01  9.9884873011933273e-01  9.9884873011926645e-01  9.9884873011935060e-01  9.9873977897085264e-01  9.9873977897089339e-01  9.9873977897076394e-01  9.9873977897076305e-01  9.9873977897077648e-01  9.9873977897083466e-01  9.9873977897081545e-01  9.9873977897078170e-01  9.9873977897084432e-01  9.9873977897081212e-01  9.9873977897078459e-01  9.9873977897079580e-01  9.9873977897081812e-01  9.9873977897076249e-01  9.9873977897073485e-01  9.9873977897081501e-01  9.9873977897074651e-01  9.9873977897080113e-01  9.9873977897075938e-01  9.9873977897067223e-01  9.9873977897076560e-01  9.9873977897086585e-01  9.9873977897063748e-01  9.9873977897086830e-01  9.9873977897073496e-01  9.9873977897085464e-01  9.9873977897078825e-01  9.9873977897084254e-01  9.9873977897071198e-01  9.9873977897071953e-01  9.9873977897085264e-01  9.9884873011939113e-01  9.9884873011947106e-01  9.9884873011929154e-01  9.9884873011930142e-01  9.9884873011932729e-01  9.9884873011943320e-01  9.9884873011930542e-01  9.9884873011933761e-01  9.9884873011925912e-01  9.9884873011923825e-01  9.9884873011931308e-01  9.9884873011926811e-01  9.9884873011927422e-01  9.9884873011933473e-01  9.9884873011922848e-01  9.9884873011936859e-01  9.9884873011927944e-01  9.9884873011936337e-01  9.9884873011914277e-01  9.9884873011922837e-01  9.9884873011929343e-01  9.9884873011934716e-01  9.9884873011946396e-01  9.9884873011923225e-01  9.9884873011927078e-01  9.9884873011940867e-01  9.9884873011913800e-01  9.9884873011921493e-01  9.9884873011924258e-01  9.9884873011930175e-01  9.9884873011939113e-01  9.9915674566992430e-01  9.9915674566988000e-01  9.9915674567009205e-01  9.9915674566997037e-01  9.9915674566992019e-01  9.9915674566984347e-01  9.9915674566998269e-01  9.9915674566990909e-01  9.9915674567003987e-01  9.9915674566992785e-01  9.9915674566989265e-01  9.9915674567005186e-01  9.9915674566995205e-01  9.9915674566995460e-01  9.9915674566990775e-01  9.9915674566988277e-01  9.9915674566993939e-01  9.9915674566995727e-01  9.9915674566989809e-01  9.9915674566984480e-01  9.9915674566978452e-01  9.9915674566980839e-01  9.9915674566989909e-01  9.9915674566998347e-01  9.9915674566982815e-01  9.9915674566995916e-01  9.9915674566979795e-01  9.9915674566996859e-01  9.9915674566982227e-01  9.9915674566990853e-01  9.9915674566992430e-01  9.9961056866528764e-01  9.9961056866532993e-01  9.9961056866532483e-01  9.9961056866533593e-01  9.9961056866535747e-01  9.9961056866529974e-01  9.9961056866533249e-01  9.9961056866538789e-01  9.9961056866540132e-01  9.9961056866523001e-01  9.9961056866532816e-01  9.9961056866523523e-01  9.9961056866527254e-01  9.9961056866525699e-01  9.9961056866536224e-01  9.9961056866534181e-01  9.9961056866529951e-01  9.9961056866539588e-01  9.9961056866540854e-01  9.9961056866528231e-01  9.9961056866534848e-01  9.9961056866528208e-01  9.9961056866534714e-01  9.9961056866526454e-01  9.9961056866521203e-01  9.9961056866540643e-01  9.9961056866532660e-01  9.9961056866522402e-01  9.9961056866553244e-01  9.9961056866538567e-01  9.9961056866528764e-01  1.0001317305206201e+00  1.0001317305207569e+00  1.0001317305205850e+00  1.0001317305205184e+00  1.0001317305203976e+00  1.0001317305204840e+00  1.0001317305206234e+00  1.0001317305206832e+00  1.0001317305206525e+00  1.0001317305205215e+00  1.0001317305205764e+00  1.0001317305204307e+00  1.0001317305204984e+00  1.0001317305205200e+00  1.0001317305205324e+00  1.0001317305205426e+00  1.0001317305205384e+00  1.0001317305205193e+00  1.0001317305206379e+00  1.0001317305204780e+00  1.0001317305205091e+00  1.0001317305205699e+00  1.0001317305205433e+00  1.0001317305204473e+00  1.0001317305204946e+00  1.0001317305205180e+00  1.0001317305205473e+00  1.0001317305205994e+00  1.0001317305206394e+00  1.0001317305204545e+00  1.0001317305206201e+00  1.0006301179400974e+00  1.0006301179399464e+00  1.0006301179399386e+00  1.0006301179401436e+00  1.0006301179399879e+00  1.0006301179397623e+00  1.0006301179399857e+00  1.0006301179399861e+00  1.0006301179399935e+00  1.0006301179399886e+00  1.0006301179400401e+00  1.0006301179398467e+00  1.0006301179398878e+00  1.0006301179400023e+00  1.0006301179398323e+00  1.0006301179399311e+00  1.0006301179400128e+00  1.0006301179399582e+00  1.0006301179399999e+00  1.0006301179399308e+00  1.0006301179399997e+00  1.0006301179398602e+00  1.0006301179399100e+00  1.0006301179400392e+00  1.0006301179399264e+00  1.0006301179399479e+00  1.0006301179397954e+00  1.0006301179398973e+00  1.0006301179399331e+00  1.0006301179401367e+00  1.0006301179400974e+00  1.0010195541416917e+00  1.0010195541417639e+00  1.0010195541415776e+00  1.0010195541416238e+00  1.0010195541414577e+00  1.0010195541415294e+00  1.0010195541416260e+00  1.0010195541415405e+00  1.0010195541415476e+00  1.0010195541415972e+00  1.0010195541415494e+00  1.0010195541415892e+00  1.0010195541414935e+00  1.0010195541415650e+00  1.0010195541414935e+00  1.0010195541415359e+00  1.0010195541414992e+00  1.0010195541415314e+00  1.0010195541414018e+00  1.0010195541414595e+00  1.0010195541415063e+00  1.0010195541414291e+00  1.0010195541414972e+00  1.0010195541414955e+00  1.0010195541415563e+00  1.0010195541414986e+00  1.0010195541414904e+00  1.0010195541415337e+00  1.0010195541415052e+00  1.0010195541416751e+00  1.0010195541416917e+00  1.0012327003348220e+00  1.0012327003368333e+00  1.0012327003372397e+00  1.0012327003368537e+00  1.0012327003347290e+00  1.0012327003345576e+00  1.0012327003346719e+00  1.0012327003347599e+00  1.0012327003346901e+00  1.0012327003347579e+00  1.0012327003346406e+00  1.0012327003348178e+00  1.0012327003345252e+00  1.0012327003346722e+00  1.0012327003347266e+00  1.0012327003345214e+00  1.0012327003347357e+00  1.0012327003346921e+00  1.0012327003347259e+00  1.0012327003346220e+00  1.0012327003346169e+00  1.0012327003345296e+00  1.0012327003347092e+00  1.0012327003348243e+00  1.0012327003348116e+00  1.0012327003346551e+00  1.0012327003347079e+00  1.0012327003345709e+00  1.0012327003346353e+00  1.0012327003345953e+00  1.0012327003348220e+00  1.0012327003369113e+00  1.0012327003368300e+00  1.0012327003366615e+00  1.0012327003346391e+00  1.0012327003347015e+00  1.0012327003347228e+00  1.0012327003348718e+00  1.0012327003346964e+00  1.0012327003348036e+00  1.0012327003347379e+00  1.0012327003347614e+00  1.0012327003348194e+00  1.0012327003349399e+00  1.0012327003348851e+00  1.0012327003347148e+00  1.0012327003347121e+00  1.0012327003345951e+00  1.0012327003348140e+00  1.0012327003347194e+00  1.0012327003348205e+00  1.0012327003347627e+00  1.0012327003349104e+00  1.0012327003348291e+00  1.0012327003347692e+00  1.0012327003348056e+00  1.0012327003349308e+00  1.0012327003348844e+00  1.0012327003348298e+00  1.0012327003348143e+00  1.0012327003349228e+00  1.0012327003369113e+00  1.0010195541417770e+00  1.0010195541417475e+00  1.0010195541418379e+00  1.0010195541417719e+00  1.0010195541418567e+00  1.0010195541416307e+00  1.0010195541416305e+00  1.0010195541417271e+00  1.0010195541415496e+00  1.0010195541417231e+00  1.0010195541416389e+00  1.0010195541417533e+00  1.0010195541417000e+00  1.0010195541415359e+00  1.0010195541417377e+00  1.0010195541416971e+00  1.0010195541417015e+00  1.0010195541415992e+00  1.0010195541416360e+00  1.0010195541415150e+00  1.0010195541417353e+00  1.0010195541417957e+00  1.0010195541416487e+00  1.0010195541416202e+00  1.0010195541417164e+00  1.0010195541416647e+00  1.0010195541417490e+00  1.0010195541416198e+00  1.0010195541416991e+00  1.0010195541418219e+00  1.0010195541417770e+00  1.0006301179397299e+00  1.0006301179397625e+00  1.0006301179399679e+00  1.0006301179399144e+00  1.0006301179399724e+00  1.0006301179400596e+00  1.0006301179398431e+00  1.0006301179400350e+00  1.0006301179398465e+00  1.0006301179398713e+00  1.0006301179398023e+00  1.0006301179398647e+00  1.0006301179399542e+00  1.0006301179397465e+00  1.0006301179399397e+00  1.0006301179399379e+00  1.0006301179398784e+00  1.0006301179398869e+00  1.0006301179399311e+00  1.0006301179397448e+00  1.0006301179398014e+00  1.0006301179399830e+00  1.0006301179399961e+00  1.0006301179399213e+00  1.0006301179398922e+00  1.0006301179399457e+00  1.0006301179399022e+00  1.0006301179399832e+00  1.0006301179398136e+00  1.0006301179398844e+00  1.0006301179397299e+00  1.0001317305207575e+00  1.0001317305208317e+00  1.0001317305207611e+00  1.0001317305208122e+00  1.0001317305206872e+00  1.0001317305208066e+00  1.0001317305208646e+00  1.0001317305208053e+00  1.0001317305207924e+00  1.0001317305207373e+00  1.0001317305207575e+00  1.0001317305206876e+00  1.0001317305207444e+00  1.0001317305208541e+00  1.0001317305207629e+00  1.0001317305206723e+00  1.0001317305207316e+00  1.0001317305208848e+00  1.0001317305208433e+00  1.0001317305207262e+00  1.0001317305206339e+00  1.0001317305208262e+00  1.0001317305207640e+00  1.0001317305207607e+0