<?xml version="1.0"?>
<VTKFile type="UnstructuredGrid"  version="0.1"  >
<UnstructuredGrid>
<Piece  NumberOfPoints="961" NumberOfCells="1800">
<Points>
<DataArray  type="Float64"  NumberOfComponents="3"  format="ascii">0 0 0  0.03333333333333333 0 0  0.06666666666666667 0 0  0.1 0 0  0.1333333333333333 0 0  0.1666666666666667 0 0  0.2 0 0  0.2333333333333333 0 0  0.2666666666666667 0 0  0.3 0 0  0.3333333333333333 0 0  0.3666666666666666 0 0  0.4 0 0  0.4333333333333333 0 0  0.4666666666666667 0 0  0.5 0 0  0.5333333333333333 0 0  0.5666666666666667 0 0  0.6 0 0  0.6333333333333333 0 0  0.6666666666666666 0 0  0.7 0 0  0.7333333333333333 0 0  0.7666666666666667 0 0  0.8 0 0  0.8333333333333334 0 0  0.8666666666666667 0 0  0.9 0 0  0.9333333333333333 0 0  0.9666666666666667 0 0  1 0 0  0 0.03333333333333333 0  0.03333333333333333 0.03333333333333333 0  0.06666666666666667 0.03333333333333333 0  0.1 0.03333333333333333 0  0.1333333333333333 0.03333333333333333 0  0.1666666666666667 0.03333333333333333 0  0.2 0.03333333333333333 0  0.2333333333333333 0.03333333333333333 0  0.2666666666666667 0.03333333333333333 0  0.3 0.03333333333333333 0  0.3333333333333333 0.03333333333333333 0  0.3666666666666666 0.03333333333333333 0  0.4 0.03333333333333333 0  0.4333333333333333 0.03333333333333333 0  0.4666666666666667 0.03333333333333333 0  0.5 0.03333333333333333 0  0.5333333333333333 0.03333333333333333 0  0.5666666666666667 0.03333333333333333 0  0.6 0.03333333333333333 0  0.6333333333333333 0.03333333333333333 0  0.6666666666666666 0.03333333333333333 0  0.7 0.03333333333333333 0  0.7333333333333333 0.03333333333333333 0  0.7666666666666667 0.03333333333333333 0  0.8 0.03333333333333333 0  0.8333333333333334 0.03333333333333333 0  0.8666666666666667 0.03333333333333333 0  0.9 0.03333333333333333 0  0.9333333333333333 0.03333333333333333 0  0.9666666666666667 0.03333333333333333 0  1 0.03333333333333333 0  0 0.06666666666666667 0  0.03333333333333333 0.06666666666666667 0  0.06666666666666667 0.06666666666666667 0  0.1 0.06666666666666667 0  0.1333333333333333 0.06666666666666667 0  0.1666666666666667 0.06666666666666667 0  0.2 0.06666666666666667 0  0.2333333333333333 0.06666666666666667 0  0.2666666666666667 0.06666666666666667 0  0.3 0.06666666666666667 0  0.3333333333333333 0.06666666666666667 0  0.3666666666666666 0.06666666666666667 0  0.4 0.06666666666666667 0  0.4333333333333333 0.06666666666666667 0  0.4666666666666667 0.06666666666666667 0  0.5 0.06666666666666667 0  0.5333333333333333 0.06666666666666667 0  0.5666666666666667 0.06666666666666667 0  0.6 0.06666666666666667 0  0.6333333333333333 0.06666666666666667 0  0.6666666666666666 0.06666666666666667 0  0.7 0.06666666666666667 0  0.7333333333333333 0.06666666666666667 0  0.7666666666666667 0.06666666666666667 0  0.8 0.06666666666666667 0  0.8333333333333334 0.06666666666666667 0  0.8666666666666667 0.06666666666666667 0  0.9 0.06666666666666667 0  0.9333333333333333 0.06666666666666667 0  0.9666666666666667 0.06666666666666667 0  1 0.06666666666666667 0  0 0.1 0  0.03333333333333333 0.1 0  0.06666666666666667 0.1 0  0.1 0.1 0  0.1333333333333333 0.1 0  0.1666666666666667 0.1 0  0.2 0.1 0  0.2333333333333333 0.1 0  0.2666666666666667 0.1 0  0.3 0.1 0  0.3333333333333333 0.1 0  0.3666666666666666 0.1 0  0.4 0.1 0  0.4333333333333333 0.1 0  0.4666666666666667 0.1 0  0.5 0.1 0  0.5333333333333333 0.1 0  0.5666666666666667 0.1 0  0.6 0.1 0  0.6333333333333333 0.1 0  0.6666666666666666 0.1 0  0.7 0.1 0  0.7333333333333333 0.1 0  0.7666666666666667 0.1 0  0.8 0.1 0  0.8333333333333334 0.1 0  0.8666666666666667 0.1 0  0.9 0.1 0  0.9333333333333333 0.1 0  0.9666666666666667 0.1 0  1 0.1 0  0 0.1333333333333333 0  0.03333333333333333 0.1333333333333333 0  0.06666666666666667 0.1333333333333333 0  0.1 0.1333333333333333 0  0.1333333333333333 0.1333333333333333 0  0.1666666666666667 0.1333333333333333 0  0.2 0.1333333333333333 0  0.2333333333333333 0.1333333333333333 0  0.2666666666666667 0.1333333333333333 0  0.3 0.1333333333333333 0  0.3333333333333333 0.1333333333333333 0  0.3666666666666666 0.1333333333333333 0  0.4 0.1333333333333333 0  0.4333333333333333 0.1333333333333333 0  0.4666666666666667 0.1333333333333333 0  0.5 0.1333333333333333 0  0.5333333333333333 0.1333333333333333 0  0.5666666666666667 0.1333333333333333 0  0.6 0.1333333333333333 0  0.6333333333333333 0.1333333333333333 0  0.6666666666666666 0.1333333333333333 0  0.7 0.1333333333333333 0  0.7333333333333333 0.1333333333333333 0  0.7666666666666667 0.1333333333333333 0  0.8 0.1333333333333333 0  0.8333333333333334 0.1333333333333333 0  0.8666666666666667 0.1333333333333333 0  0.9 0.1333333333333333 0  0.9333333333333333 0.1333333333333333 0  0.9666666666666667 0.1333333333333333 0  1 0.1333333333333333 0  0 0.1666666666666667 0  0.03333333333333333 0.1666666666666667 0  0.06666666666666667 0.1666666666666667 0  0.1 0.1666666666666667 0  0.1333333333333333 0.1666666666666667 0  0.1666666666666667 0.1666666666666667 0  0.2 0.1666666666666667 0  0.2333333333333333 0.1666666666666667 0  0.2666666666666667 0.1666666666666667 0  0.3 0.1666666666666667 0  0.3333333333333333 0.1666666666666667 0  0.3666666666666666 0.1666666666666667 0  0.4 0.1666666666666667 0  0.4333333333333333 0.1666666666666667 0  0.4666666666666667 0.1666666666666667 0  0.5 0.1666666666666667 0  0.5333333333333333 0.1666666666666667 0  0.5666666666666667 0.1666666666666667 0  0.6 0.1666666666666667 0  0.6333333333333333 0.1666666666666667 0  0.6666666666666666 0.1666666666666667 0  0.7 0.1666666666666667 0  0.7333333333333333 0.1666666666666667 0  0.7666666666666667 0.1666666666666667 0  0.8 0.1666666666666667 0  0.8333333333333334 0.1666666666666667 0  0.8666666666666667 0.1666666666666667 0  0.9 0.1666666666666667 0  0.9333333333333333 0.1666666666666667 0  0.9666666666666667 0.1666666666666667 0  1 0.1666666666666667 0  0 0.2 0  0.03333333333333333 0.2 0  0.06666666666666667 0.2 0  0.1 0.2 0  0.1333333333333333 0.2 0  0.1666666666666667 0.2 0  0.2 0.2 0  0.2333333333333333 0.2 0  0.2666666666666667 0.2 0  0.3 0.2 0  0.3333333333333333 0.2 0  0.3666666666666666 0.2 0  0.4 0.2 0  0.4333333333333333 0.2 0  0.4666666666666667 0.2 0  0.5 0.2 0  0.5333333333333333 0.2 0  0.5666666666666667 0.2 0  0.6 0.2 0  0.6333333333333333 0.2 0  0.6666666666666666 0.2 0  0.7 0.2 0  0.7333333333333333 0.2 0  0.7666666666666667 0.2 0  0.8 0.2 0  0.8333333333333334 0.2 0  0.8666666666666667 0.2 0  0.9 0.2 0  0.9333333333333333 0.2 0  0.9666666666666667 0.2 0  1 0.2 0  0 0.2333333333333333 0  0.03333333333333333 0.2333333333333333 0  0.06666666666666667 0.2333333333333333 0  0.1 0.2333333333333333 0  0.1333333333333333 0.2333333333333333 0  0.1666666666666667 0.2333333333333333 0  0.2 0.2333333333333333 0  0.2333333333333333 0.2333333333333333 0  0.2666666666666667 0.2333333333333333 0  0.3 0.2333333333333333 0  0.3333333333333333 0.2333333333333333 0  0.3666666666666666 0.2333333333333333 0  0.4 0.2333333333333333 0  0.4333333333333333 0.2333333333333333 0  0.4666666666666667 0.2333333333333333 0  0.5 0.2333333333333333 0  0.5333333333333333 0.2333333333333333 0  0.5666666666666667 0.2333333333333333 0  0.6 0.2333333333333333 0  0.6333333333333333 0.2333333333333333 0  0.6666666666666666 0.2333333333333333 0  0.7 0.2333333333333333 0  0.7333333333333333 0.2333333333333333 0  0.7666666666666667 0.2333333333333333 0  0.8 0.2333333333333333 0  0.8333333333333334 0.2333333333333333 0  0.8666666666666667 0.2333333333333333 0  0.9 0.2333333333333333 0  0.9333333333333333 0.2333333333333333 0  0.9666666666666667 0.2333333333333333 0  1 0.2333333333333333 0  0 0.2666666666666667 0  0.03333333333333333 0.2666666666666667 0  0.06666666666666667 0.2666666666666667 0  0.1 0.2666666666666667 0  0.1333333333333333 0.2666666666666667 0  0.1666666666666667 0.2666666666666667 0  0.2 0.2666666666666667 0  0.2333333333333333 0.2666666666666667 0  0.2666666666666667 0.2666666666666667 0  0.3 0.2666666666666667 0  0.3333333333333333 0.2666666666666667 0  0.3666666666666666 0.2666666666666667 0  0.4 0.2666666666666667 0  0.4333333333333333 0.2666666666666667 0  0.4666666666666667 0.2666666666666667 0  0.5 0.2666666666666667 0  0.5333333333333333 0.2666666666666667 0  0.5666666666666667 0.2666666666666667 0  0.6 0.2666666666666667 0  0.6333333333333333 0.2666666666666667 0  0.6666666666666666 0.2666666666666667 0  0.7 0.2666666666666667 0  0.7333333333333333 0.2666666666666667 0  0.7666666666666667 0.2666666666666667 0  0.8 0.2666666666666667 0  0.8333333333333334 0.2666666666666667 0  0.8666666666666667 0.2666666666666667 0  0.9 0.2666666666666667 0  0.9333333333333333 0.2666666666666667 0  0.9666666666666667 0.2666666666666667 0  1 0.2666666666666667 0  0 0.3 0  0.03333333333333333 0.3 0  0.06666666666666667 0.3 0  0.1 0.3 0  0.1333333333333333 0.3 0  0.1666666666666667 0.3 0  0.2 0.3 0  0.2333333333333333 0.3 0  0.2666666666666667 0.3 0  0.3 0.3 0  0.3333333333333333 0.3 0  0.3666666666666666 0.3 0  0.4 0.3 0  0.4333333333333333 0.3 0  0.4666666666666667 0.3 0  0.5 0.3 0  0.5333333333333333 0.3 0  0.5666666666666667 0.3 0  0.6 0.3 0  0.6333333333333333 0.3 0  0.6666666666666666 0.3 0  0.7 0.3 0  0.7333333333333333 0.3 0  0.7666666666666667 0.3 0  0.8 0.3 0  0.8333333333333334 0.3 0  0.8666666666666667 0.3 0  0.9 0.3 0  0.9333333333333333 0.3 0  0.9666666666666667 0.3 0  1 0.3 0  0 0.3333333333333333 0  0.03333333333333333 0.3333333333333333 0  0.06666666666666667 0.3333333333333333 0  0.1 0.3333333333333333 0  0.1333333333333333 0.3333333333333333 0  0.1666666666666667 0.3333333333333333 0  0.2 0.3333333333333333 0  0.2333333333333333 0.3333333333333333 0  0.2666666666666667 0.3333333333333333 0  0.3 0.3333333333333333 0  0.3333333333333333 0.3333333333333333 0  0.3666666666666666 0.3333333333333333 0  0.4 0.3333333333333333 0  0.4333333333333333 0.3333333333333333 0  0.4666666666666667 0.3333333333333333 0  0.5 0.3333333333333333 0  0.5333333333333333 0.33333333333333
[...]
<PointData  Vectors="u_f"> 
<DataArray  type="Float64"  Name="u_f"  NumberOfComponents="3" format="ascii">2.7085808779229396e-06 -1.3676246523068245e-09 0.0000000000000000e+00  2.7085808853412135e-06 -1.3676526313907179e-09 0.0000000000000000e+00  2.7085808758033785e-06 -1.3676389861100660e-09 0.0000000000000000e+00  2.7085808755619267e-06 -1.3676491460602042e-09 0.0000000000000000e+00  2.7085808770647393e-06 -1.3676144471996658e-09 0.0000000000000000e+00  2.7085808925865571e-06 -1.3676276260023330e-09 0.0000000000000000e+00  2.7085809001366700e-06 -1.3676278007215131e-09 0.0000000000000000e+00  2.7085808743458313e-06 -1.3676463739720895e-09 0.0000000000000000e+00  2.7085808778654769e-06 -1.3676201491815212e-09 0.0000000000000000e+00  2.7085808746092925e-06 -1.3676313592356736e-09 0.0000000000000000e+00  2.7085808926912910e-06 -1.3676091775976368e-09 0.0000000000000000e+00  2.7085808635894074e-06 -1.3677812326761546e-09 0.0000000000000000e+00  2.7085807937149626e-06 -1.3676677377422175e-09 0.0000000000000000e+00  2.7085808763436907e-06 -1.3676267953950487e-09 0.0000000000000000e+00  2.7085809022537374e-06 -1.3676199538624999e-09 0.0000000000000000e+00  2.7085808877285182e-06 -1.3676259808339565e-09 0.0000000000000000e+00  2.7085808763203261e-06 -1.3676482721932531e-09 0.0000000000000000e+00  2.7085809001960301e-06 -1.3676685853172658e-09 0.0000000000000000e+00  2.7085808668704742e-06 -1.3676468009309051e-09 0.0000000000000000e+00  2.7085808834595264e-06 -1.3676275028369662e-09 0.0000000000000000e+00  2.7085808889237427e-06 -1.3676585544956064e-09 0.0000000000000000e+00  2.7085808710977243e-06 -1.3676603727026497e-09 0.0000000000000000e+00  2.7085809135822406e-06 -1.3675205793066067e-09 0.0000000000000000e+00  2.7085809665258385e-06 -1.3676199950079723e-09 0.0000000000000000e+00  2.7085808781907917e-06 -1.3676579630633214e-09 0.0000000000000000e+00  2.7085808791196277e-06 -1.3676601494112123e-09 0.0000000000000000e+00  2.7085808775918784e-06 -1.3676604345021735e-09 0.0000000000000000e+00  2.7085808881253904e-06 -1.3676377903977001e-09 0.0000000000000000e+00  2.7085808827859116e-06 -1.3676437002753221e-09 0.0000000000000000e+00  2.7085808917550283e-06 -1.3676347369049116e-09 0.0000000000000000e+00  2.7085808779229938e-06 2.6400888762060496e-10 0.0000000000000000e+00  4.1704938868898059e-04 -4.4231384210662028e-09 0.0000000000000000e+00  4.1704938868648150e-04 -4.4231430900744384e-09 0.0000000000000000e+00  4.1704938868400887e-04 -4.4231263967220089e-09 0.0000000000000000e+00  4.1704938870186362e-04 -4.4231104873561702e-09 0.0000000000000000e+00  4.1704938870460524e-04 -4.4231308403246128e-09 0.0000000000000000e+00  4.1704938870218411e-04 -4.4231362902836732e-09 0.0000000000000000e+00  4.1704938869775319e-04 -4.4231253332280979e-09 0.0000000000000000e+00  4.1704938871688340e-04 -4.4231151577738687e-09 0.0000000000000000e+00  4.1704938870170208e-04 -4.4231383680487166e-09 0.0000000000000000e+00  4.1704938867844117e-04 -4.4231226461414336e-09 0.0000000000000000e+00  4.1704938870961209e-04 -4.4231029202755276e-09 0.0000000000000000e+00  4.1704938862553048e-04 -4.4232218435929019e-09 0.0000000000000000e+00  4.1704938863931340e-04 -4.4231616371957425e-09 0.0000000000000000e+00  4.1704938870771701e-04 -4.4231281919439661e-09 0.0000000000000000e+00  4.1704938869210439e-04 -4.4231509741757963e-09 0.0000000000000000e+00  4.1704938869722562e-04 -4.4231291749900759e-09 0.0000000000000000e+00  4.1704938869457572e-04 -4.4231290995296046e-09 0.0000000000000000e+00  4.1704938868310367e-04 -4.4231270485443550e-09 0.0000000000000000e+00  4.1704938870700307e-04 -4.4231343929298714e-09 0.0000000000000000e+00  4.1704938868284292e-04 -4.4231531646978656e-09 0.0000000000000000e+00  4.1704938870061972e-04 -4.4231061607389807e-09 0.0000000000000000e+00  4.1704938870116984e-04 -4.4231169085435368e-09 0.0000000000000000e+00  4.1704938877124085e-04 -4.4230120531830314e-09 0.0000000000000000e+00  4.1704938874847369e-04 -4.4231170054712110e-09 0.0000000000000000e+00  4.1704938870273359e-04 -4.4231277978364764e-09 0.0000000000000000e+00  4.1704938868708942e-04 -4.4231364802358938e-09 0.0000000000000000e+00  4.1704938870253865e-04 -4.4231456731861143e-09 0.0000000000000000e+00  4.1704938867872425e-04 -4.4231492115883245e-09 0.0000000000000000e+00  4.1704938868225821e-04 -4.4231453753557776e-09 0.0000000000000000e+00  4.1704938870249040e-04 -4.4231531261002682e-09 0.0000000000000000e+00  4.1704938868898081e-04 9.3794967576122387e-10 0.0000000000000000e+00  7.5927849347221139e-04 -6.9844104076677294e-09 0.0000000000000000e+00  7.5927849348823460e-04 -6.9844202087469484e-09 0.0000000000000000e+00  7.5927849346529115e-04 -6.9844422550223439e-09 0.0000000000000000e+00  7.5927849345665255e-04 -6.9844272820819217e-09 0.0000000000000000e+00  7.5927849348813724e-04 -6.9844361471694053e-09 0.0000000000000000e+00  7.5927849345001864e-04 -6.9844325157426487e-09 0.0000000000000000e+00  7.5927849348454766e-04 -6.9844279449631300e-09 0.0000000000000000e+00  7.5927849346983406e-04 -6.9844514804986296e-09 0.0000000000000000e+00  7.5927849347002250e-04 -6.9844498585321796e-09 0.0000000000000000e+00  7.5927849346169810e-04 -6.9844169087607960e-09 0.0000000000000000e+00  7.5927849348820370e-04 -6.9844266034797819e-09 0.0000000000000000e+00  7.5927849338871915e-04 -6.9845475500268303e-09 0.0000000000000000e+00  7.5927849340352372e-04 -6.9844538770191117e-09 0.0000000000000000e+00  7.5927849347357066e-04 -6.9844310876315471e-09 0.0000000000000000e+00  7.5927849347509461e-04 -6.9844222331692449e-09 0.0000000000000000e+00  7.5927849345994224e-04 -6.9844197824386542e-09 0.0000000000000000e+00  7.5927849348509508e-04 -6.9844523502456124e-09 0.0000000000000000e+00  7.5927849345304682e-04 -6.9844503158486559e-09 0.0000000000000000e+00  7.5927849347753548e-04 -6.9844415162469836e-09 0.0000000000000000e+00  7.5927849346610126e-04 -6.9844478552518255e-09 0.0000000000000000e+00  7.5927849347639912e-04 -6.9844321361634681e-09 0.0000000000000000e+00  7.5927849347759587e-04 -6.9844492587515378e-09 0.0000000000000000e+00  7.5927849352440272e-04 -6.9843247701159919e-09 0.0000000000000000e+00  7.5927849352616769e-04 -6.9844047780563689e-09 0.0000000000000000e+00  7.5927849345984769e-04 -6.9844316740765022e-09 0.0000000000000000e+00  7.5927849346821383e-04 -6.9844308609248729e-09 0.0000000000000000e+00  7.5927849347481294e-04 -6.9844270859497487e-09 0.0000000000000000e+00  7.5927849347204952e-04 -6.9844215117411193e-09 0.0000000000000000e+00  7.5927849346255462e-04 -6.9844187302204458e-09 0.0000000000000000e+00  7.5927849347063377e-04 -6.9844295822168306e-09 0.0000000000000000e+00  7.5927849347221161e-04 1.5971637779262280e-09 0.0000000000000000e+00  9.7022152062054023e-04 -8.1857641385726931e-09 0.0000000000000000e+00  9.7022152060757968e-04 -8.1857867079756369e-09 0.0000000000000000e+00  9.7022152058954614e-04 -8.1857632651394230e-09 0.0000000000000000e+00  9.7022152061698144e-04 -8.1857454634071125e-09 0.0000000000000000e+00  9.7022152060958285e-04 -8.1857536697333561e-09 0.0000000000000000e+00  9.7022152060048986e-04 -8.1857700546302675e-09 0.0000000000000000e+00  9.7022152061348099e-04 -8.1857687256152445e-09 0.0000000000000000e+00  9.7022152060079647e-04 -8.1857741177863291e-09 0.0000000000000000e+00  9.7022152061606594e-04 -8.1857651330029257e-09 0.0000000000000000e+00  9.7022152060903901e-04 -8.1857952369604470e-09 0.0000000000000000e+00  9.7022152060292520e-04 -8.1858011547527448e-09 0.0000000000000000e+00  9.7022152055766388e-04 -8.1857482589139940e-09 0.0000000000000000e+00  9.7022152062184344e-04 -8.1857830843551360e-09 0.0000000000000000e+00  9.7022152060824928e-04 -8.1857856556490083e-09 0.0000000000000000e+00  9.7022152060365768e-04 -8.1858000720684554e-09 0.0000000000000000e+00  9.7022152059725417e-04 -8.1857954184558906e-09 0.0000000000000000e+00  9.7022152059813020e-04 -8.1857719934005924e-09 0.0000000000000000e+00  9.7022152061429154e-04 -8.1857631265783853e-09 0.0000000000000000e+00  9.7022152060743721e-04 -8.1857511535169541e-09 0.0000000000000000e+00  9.7022152062926177e-04 -8.1857488311559007e-09 0.0000000000000000e+00  9.7022152060166123e-04 -8.1857577393946307e-09 0.0000000000000000e+00  9.7022152061653562e-04 -8.1857630140381998e-09 0.0000000000000000e+00  9.7022152062324705e-04 -8.1857884442169959e-09 0.0000000000000000e+00  9.7022152060269708e-04 -8.1857819719637070e-09 0.0000000000000000e+00  9.7022152058851355e-04 -8.1857704184885166e-09 0.0000000000000000e+00  9.7022152062206939e-04 -8.1857663169516981e-09 0.0000000000000000e+00  9.7022152059619946e-04 -8.1858077506050814e-09 0.0000000000000000e+00  9.7022152061361413e-04 -8.1857808359366707e-09 0.0000000000000000e+00  9.7022152060917541e-04 -8.1857734171748853e-09 0.0000000000000000e+00  9.7022152059926601e-04 -8.1857722707395081e-09 0.0000000000000000e+00  9.7022152062054088e-04 2.0007707910475294e-09 0.0000000000000000e+00  1.0134045832616190e-03 -7.5602293850198649e-09 0.0000000000000000e+00  1.0134045832515225e-03 -7.5601819725336014e-09 0.0000000000000000e+00  1.0134045832656726e-03 -7.5602335974705656e-09 0.0000000000000000e+00  1.0134045832566390e-03 -7.5601953210139086e-09 0.0000000000000000e+00  1.0134045832726731e-03 -7.5602177956575825e-09 0.0000000000000000e+00  1.0134045832533387e-03 -7.5602034076442323e-09 0.0000000000000000e+00  1.0134045832541421e-03 -7.5602005118486498e-09 0.0000000000000000e+00  1.0134045832604483e-03 -7.5601919282200503e-09 0.0000000000000000e+00  1.0134045832739303e-03 -7.5601931641021067e-09 0.0000000000000000e+00  1.0134045832705632e-03 -7.5601991822915257e-09 0.0000000000000000e+00  1.0134045832718834e-03 -7.5602054210076666e-09 0.0000000000000000e+00  1.0134045832516194e-03 -7.5602262456040542e-09 0.0000000000000000e+00  1.0134045832490869e-03 -7.5601886131634877e-09 0.0000000000000000e+00  1.0134045832733997e-03 -7.5601999723496488e-09 0.0000000000000000e+00  1.0134045832560594e-03 -7.5601949234369720e-09 0.0000000000000000e+00  1.0134045832717812e-03 -7.5601946883819410e-09 0.0000000000000000e+00  1.0134045832700571e-03 -7.5601820797611963e-09 0.0000000000000000e+00  1.0134045832779319e-03 -7.5602004581806423e-09 0.0000000000000000e+00  1.0134045832655503e-03 -7.5601903495132669e-09 0.0000000000000000e+00  1.0134045832649575e-03 -7.5602279042165377e-09 0.0000000000000000e+00  1.0134045832564660e-03 -7.5601841142665729e-09 0.0000000000000000e+00  1.0134045832894281e-03 -7.5601880170691332e-09 0.0000000000000000e+00  1.0134045832707389e-03 -7.5602119883454860e-09 0.0000000000000000e+00  1.0134045832482399e-03 -7.5601996320185869e-09 0.0000000000000000e+00  1.0134045832559243e-03 -7.5601999624834090e-09 0.0000000000000000e+00  1.0134045832752880e-03 -7.5601885333662078e-09 0.0000000000000000e+00  1.0134045832591555e-03 -7.5601958328657543e-09 0.0000000000000000e+00  1.0134045832553475e-03 -7.5602154279768782e-09 0.0000000000000000e+00  1.0134045832646031e-03 -7.5601983262054903e-09 0.0000000000000000e+00  1.0134045832783725e-03 -7.5601871107845373e-09 0.0000000000000000e+00  1.0134045832616194e-03 1.9610578122334441e-09 0.0000000000000000e+00  8.8136089649863616e-04 -5.2913681547256050e-09 0.0000000000000000e+00  8.8136089650152588e-04 -5.2913991738581800e-09 0.0000000000000000e+00  8.8136089650285359e-04 -5.2914007399882182e-09 0.0000000000000000e+00  8.8136089650029607e-04 -5.2913970304989053e-09 0.0000000000000000e+00  8.8136089651047619e-04 -5.2913696873537960e-09 0.0000000000000000e+00  8.8136089650235464e-04 -5.2913856633980683e-09 0.0000000000000000e+00  8.8136089651120911e-04 -5.2913636780548348e-09 0.0000000000000000e+00  8.8136089649491279e-04 -5.2913602203172663e-09 0.0000000000000000e+00  8.8136089653145821e-04 -5.2913597800227641e-09 0.0000000000000000e+00  8.8136089650179736e-04 -5.2913905558603716e-09 0.0000000000000000e+00  8.8136089650993994e-04 -5.2913762318149496e-09 0.0000000000000000e+00  8.8136089650437408e-04 -5.2914286745656125e-09 0.0000000000000000e+00  8.8136089647780234e-04 -5.2914208046673031e-09 0.0000000000000000e+00  8.8136089649809438e-04 -5.2913927906178895e-09 0.0000000000000000e+00  8.8136089650840699e-04 -5.2913934695452899e-09 0.0000000000000000e+00  8.8136089648522045e-04 -5.2914048108421152e-09 0.0000000000000000e+00  8.8136089650080098e-04 -5.2913931445014786e-09 0.0000000000000000e+00  8.8136089652225908e-04 -5.2913855332938076e-09 0.0000000000000000e+00  8.8136089649377991e-04 -5.2913761258883973e-09 0.0000000000000000e+00  8.8136089650495857e-04 -5.2913873834848149e-09 0.0000000000000000e+00  8.8136089650226292e-04 -5.2913838280606307e-09 0.0000000000000000e+00  8.8136089651280071e-04 -5.2914046357434644e-09 0.0000000000000000e+00  8.8136089649436830e-04 -5.2913986020499543e-09 0.0000000000000000e+00  8.8136089649854920e-04 -5.2914007715385014e-09 0.0000000000000000e+00  8.8136089650036166e-04 -5.2913944839248425e-09 0.0000000000000000e+00  8.8136089649841725e-04 -5.2914066269891744e-09 0.0000000000000000e+00  8.8136089649024443e-04 -5.2913872994591465e-09 0.0000000000000000e+00  8.8136089650975421e-04 -5.2913756136028708e-09 0.0000000000000000e+00  8.8136089651702574e-04 -5.2914040139535184e-09 0.0000000000000000e+00  8.8136089649558109e-04 -5.2913988613911139e-09 0.0000000000000000e+00  8.8136089649863659e-04 1.4538603429905568e-09 0.0000000000000000e+00  5.9692187867888306e-04 -2.1313449188593674e-09 0.0000000000000000e+00  5.9692187866729380e-04 -2.1313183855048608e-09 0.0000000000000000e+00  5.9692187870131574e-04 -2.1313091738521528e-09 0.0000000000000000e+00  5.9692187866681123e-04 -2.1313260489710766e-09 0.0000000000000000e+00  5.9692187867573746e-04 -2.1313419705341896e-09 0.0000000000000000e+00  5.9692187869457439e-04 -2.1313230793955362e-09 0.0000000000000000e+00  5.9692187867784450e-04 -2.1313302060732564e-09 0.0000000000000000e+00  5.9692187868364943e-04 -2.1313247289007214e-09 0.0000000000000000e+00  5.9692187867761465e-04 -2.1313116051213145e-09 0.0000000000000000e+00  5.9692187869794171e-04 -2.1313179182679345e-09 0.0000000000000000e+00  5.9692187867819340e-04 -2.1313362558129587e-09 0.0000000000000000e+00  5.9692187867051811e-04 -2.1312994186346856e-09 0.0000000000000000e+00  5.9692187870120754e-04 -2.1312951377166177e-09 0.0000000000000000e+00  5.9692187867975964e-04 -2.1313180330849446e-09 0.0000000000000000e+00  5.9692187867374383e-04 -2.1313248910973664e-09 0.0000000000000000e+00  5.9692187868431719e-04 -2.1313081393064398e-09 0.0000000000000000e+00  5.9692187868704200e-04 -2.1313056195663808e-09 0.0000000000000000e+00  5.9692187870060754e-04 -2.1313275586683916e-09 0.0000000000000000e+00  5.9692187867286064e-04 -2.1313394098654986e-09 0.0000000000000000e+00  5.9692187867082993e-04 -2.1313382556780759e-09 0.0000000000000000e+00  5.9692187867359118e-04 -2.1313425202789012e-09 0.0000000000000000e+00  5.9692187867933051e-04 -2.1313193608531351e-09 0.0000000000000000e+00  5.9692187867978089e-04 -2.1313140581829398e-09 0.0000000000000000e+00  5.9692187869482593e-04 -2.1313116477846700e-09 0.0000000000000000e+00  5.9692187866763739e-04 -2.1313199642658542e-09 0.0000000000000000e+00  5.9692187868079678e-04 -2.1313125239826557e-09 0.0000000000000000e+00  5.9692187868143906e-04 -2.1313232263591407e-09 0.0000000000000000e+00  5.9692187867496616e-04 -2.1313196266452977e-09 0.0000000000000000e+00  5.9692187867286259e-04 -2.1313197051957451e-09 0.0000000000000000e+00  5.9692187868426547e-04 -2.1313337770015317e-09 0.0000000000000000e+00  5.9692187867888317e-04 6.4105556276448861e-10 0.0000000000000000e+00  2.0926948037442439e-04 9.6767961144919503e-10 0.0000000000000000e+00  2.0926948037509839e-04 9.6767409794233476e-10 0.0000000000000000e+00  2.0926948036380699e-04 9.6768688971193145e-10 0.0000000000000000e+00  2.0926948037810773e-04 9.6768600488098596e-10 0.0000000000000000e+00  2.0926948035062908e-04 9.6766521019502581e-10 0.0000000000000000e+00  2.0926948036115910e-04 9.6767701787496812e-10 0.0000000000000000e+00  2.0926948037374140e-04 9.6768411342253342e-10 0.0000000000000000e+00  2.0926948038547043e-04 9.6767464588456021e-10 0.0000000000000000e+00  2.0926948035296768e-04 9.6764896577005832e-10 0.0000000000000000e+00  2.0926948036964168e-04 9.6766152402961211e-10 0.0000000000000000e+00  2.0926948036509112e-04 9.6767428140289487e-10 0.0000000000000000e+00  2.0926948036726093e-04 9.6768219918228274e-10 0.0000000000000000e+00  2.0926948036433166e-04 9.6766637836865656e-10 0.0000000000000000e+00  2.0926948038382451e-04 9.6766440993184977e-10 0.0000000000000000e+00  2.0926948035529427e-04 9.6765297093485622e-10 0.0000000000000000e+00  2.0926948034956518e-04 9.6767134909680422e-10 0.0000000000000000e+00  2.0926948038087548e-04 9.6767503393407027e-10 0.0000000000000000e+00  2.0926948037724915e-04 9.6767102040736311e-10 0.0000000000000000e+00  2.0926948036681706e-04 9.6769769552130375e-10 0.0000000000000000e+00  2.0926948038299238e-04 9.6766930551123436e-10 0.0000000000000000e+00  2.0926948036690719e-04 9.6766971093508423e-10 0.0000000000000000e+00  2.0926948036214090e-04 9.6766265852521287e-10 0.0000000000000000e+00  2.0926948035443810e-04 9.6768294356838931e-10 0.0000000000000000e+00  2.0926948037836636e-04 9.6766015019638177e-10 0.0000000000000000e+00  2.0926948035644724e-04 9.6767461629939343e-10 0.0000000000000000e+00  2.0926948037276746e-04 9.6765217195917026e-10 0.0000000000000000e+00  2.0926948035957752e-04 9.6765938714844530e-10 0.0000000000000000e+00  2.0926948038229898e-04 9.6764471427452682e-10 0.0000000000000000e+00  2.0926948034570293e-04 9.6766997008650851e-10 0.0000000000000000e+00  2.0926948035881405e-04 9.6767766653957539e-10 0.0000000000000000e+00  2.0926948037442439e-04 -2.0804021604703314e-10 0.0000000000000000e+00  -2.1456772875548535e-04 3.2857019691828748e-09 0.0000000000000000e+00  -2.1456772875545885e-04 3.2856887193107552e-09 0.0000000000000000e+00  -2.1456772874091536e-04 3.2857142789432907e-09 0.0000000000000000e+00  -2.1456772875114779e-04 3.2856985486334409e-09 0.0000000000000000e+00  -2.1456772875896667e-04 3.2856906494074627e-09 0.0000000000000000e+00  -2.1456772875160575e-04 3.2857052140915569e-09 0.0000000000000000e+00  -2.1456772874540759e-04 3.2856962831387913e-09 0.0000000000000000e+00  -2.1456772875550449e-04 3.2856958283701901e-09 0.0000000000000000e+00  -2.1456772876028073e-04 3.2857024120252522e-09 0.0000000000000000e+00  -2.1456772875077520e-04 3.2857129310089397e-09 0.0000000000000000e+00  -2.1456772873564267e-04 3.2857007426791672e-09 0.0000000000000000e+00  -2.1456772876764853e-04 3.2856920852163997e-09 0.0000000000000000e+00  -2.1456772873875080e-04 3.2856890770974721e-09 0.0000000000000000e+00  -2.1456772875554596e-04 3.2856949045215189e-09 0.0000000000000000e+00  -2.1456772873669732e-04 3.2857072467537898e-09 0.0000000000000000e+00  -2.1456772877653200e-04 3.2856875946136316e-09 0.0000000000000000e+00  -2.1456772873866623e-04 3.2857168712164750e-09 0.0000000000000000e+00  -2.1456772871916393e-04 3.2857072026267614e-09 0.0000000000000000e+00  -2.1456772876280432e-04 3.2856850640857610e-09 0.0000000000000000e+00  -2.1456772874886310e-04 3.2857064005339942e-09 0.0000000000000000e+00  -2.1456772873623399e-04 3.2856837530684940e-09 0.0000000000000000e+00  -2.1456772876127163e-04 3.2856919249713186e-09 0.0000000000000000e+00  -2.1456772877665988e-04 3.2857158451275389e-09 0.0000000000000000e+00  -2.1456772873354880e-04 3.2857256188848633e-09 0.0000000000000000e+00  -2.1456772875809709e-04 3.2856936632184516e-09 0.0000000000000000e+00  -2.1456772875594240e-04 3.2857017487645732e-09 0.0000000000000000e+00  -2.1456772874215173e-04 3.2857173716841978e-09 0.0000000000000000e+00  -2.1456772873137161e-04 3.2857221955165036e-09 0.0000000000000000e+00  -2.1456772875821277e-04 3.2856936362218175e-09 0.0000000000000000e+00  -2.1456772874930551e-04 3.2856941611925095e-09 0.0000000000000000e+00  -2.1456772875548541e-04 -8.4699178584094405e-10 0.0000000000000000e+00  -6.0130437349177764e-04 4.5811792757748104e-09 0.0000000000000000e+00  -6.0130437351139433e-04 4.5811691834788879e-09 0.0