<?xml version="1.0"?>
<VTKFile type="UnstructuredGrid"  version="0.1"  >
<UnstructuredGrid>
<Piece  NumberOfPoints="961" NumberOfCells="1800">
<Points>
<DataArray  type="Float64"  NumberOfComponents="3"  format="ascii">0 0 0  0.03333333333333333 0 0  0.06666666666666667 0 0  0.1 0 0  0.1333333333333333 0 0  0.1666666666666667 0 0  0.2 0 0  0.2333333333333333 0 0  0.2666666666666667 0 0  0.3 0 0  0.3333333333333333 0 0  0.3666666666666666 0 0  0.4 0 0  0.4333333333333333 0 0  0.4666666666666667 0 0  0.5 0 0  0.5333333333333333 0 0  0.5666666666666667 0 0  0.6 0 0  0.6333333333333333 0 0  0.6666666666666666 0 0  0.7 0 0  0.7333333333333333 0 0  0.7666666666666667 0 0  0.8 0 0  0.8333333333333334 0 0  0.8666666666666667 0 0  0.9 0 0  0.9333333333333333 0 0  0.9666666666666667 0 0  1 0 0  0 0.03333333333333333 0  0.03333333333333333 0.03333333333333333 0  0.06666666666666667 0.03333333333333333 0  0.1 0.03333333333333333 0  0.1333333333333333 0.03333333333333333 0  0.1666666666666667 0.03333333333333333 0  0.2 0.03333333333333333 0  0.2333333333333333 0.03333333333333333 0  0.2666666666666667 0.03333333333333333 0  0.3 0.03333333333333333 0  0.3333333333333333 0.03333333333333333 0  0.3666666666666666 0.03333333333333333 0  0.4 0.03333333333333333 0  0.4333333333333333 0.03333333333333333 0  0.4666666666666667 0.03333333333333333 0  0.5 0.03333333333333333 0  0.5333333333333333 0.03333333333333333 0  0.5666666666666667 0.03333333333333333 0  0.6 0.03333333333333333 0  0.6333333333333333 0.03333333333333333 0  0.6666666666666666 0.03333333333333333 0  0.7 0.03333333333333333 0  0.7333333333333333 0.03333333333333333 0  0.7666666666666667 0.03333333333333333 0  0.8 0.03333333333333333 0  0.8333333333333334 0.03333333333333333 0  0.8666666666666667 0.03333333333333333 0  0.9 0.03333333333333333 0  0.9333333333333333 0.03333333333333333 0  0.9666666666666667 0.03333333333333333 0  1 0.03333333333333333 0  0 0.06666666666666667 0  0.03333333333333333 0.06666666666666667 0  0.06666666666666667 0.06666666666666667 0  0.1 0.06666666666666667 0  0.1333333333333333 0.06666666666666667 0  0.1666666666666667 0.06666666666666667 0  0.2 0.06666666666666667 0  0.2333333333333333 0.06666666666666667 0  0.2666666666666667 0.06666666666666667 0  0.3 0.06666666666666667 0  0.3333333333333333 0.06666666666666667 0  0.3666666666666666 0.06666666666666667 0  0.4 0.06666666666666667 0  0.4333333333333333 0.06666666666666667 0  0.4666666666666667 0.06666666666666667 0  0.5 0.06666666666666667 0  0.5333333333333333 0.06666666666666667 0  0.5666666666666667 0.06666666666666667 0  0.6 0.06666666666666667 0  0.6333333333333333 0.06666666666666667 0  0.6666666666666666 0.06666666666666667 0  0.7 0.06666666666666667 0  0.7333333333333333 0.06666666666666667 0  0.7666666666666667 0.06666666666666667 0  0.8 0.06666666666666667 0  0.8333333333333334 0.06666666666666667 0  0.8666666666666667 0.06666666666666667 0  0.9 0.06666666666666667 0  0.9333333333333333 0.06666666666666667 0  0.9666666666666667 0.06666666666666667 0  1 0.06666666666666667 0  0 0.1 0  0.03333333333333333 0.1 0  0.06666666666666667 0.1 0  0.1 0.1 0  0.1333333333333333 0.1 0  0.1666666666666667 0.1 0  0.2 0.1 0  0.2333333333333333 0.1 0  0.2666666666666667 0.1 0  0.3 0.1 0  0.3333333333333333 0.1 0  0.3666666666666666 0.1 0  0.4 0.1 0  0.4333333333333333 0.1 0  0.4666666666666667 0.1 0  0.5 0.1 0  0.5333333333333333 0.1 0  0.5666666666666667 0.1 0  0.6 0.1 0  0.6333333333333333 0.1 0  0.6666666666666666 0.1 0  0.7 0.1 0  0.7333333333333333 0.1 0  0.7666666666666667 0.1 0  0.8 0.1 0  0.8333333333333334 0.1 0  0.8666666666666667 0.1 0  0.9 0.1 0  0.9333333333333333 0.1 0  0.9666666666666667 0.1 0  1 0.1 0  0 0.1333333333333333 0  0.03333333333333333 0.1333333333333333 0  0.06666666666666667 0.1333333333333333 0  0.1 0.1333333333333333 0  0.1333333333333333 0.1333333333333333 0  0.1666666666666667 0.1333333333333333 0  0.2 0.1333333333333333 0  0.2333333333333333 0.1333333333333333 0  0.2666666666666667 0.1333333333333333 0  0.3 0.1333333333333333 0  0.3333333333333333 0.1333333333333333 0  0.3666666666666666 0.1333333333333333 0  0.4 0.1333333333333333 0  0.4333333333333333 0.1333333333333333 0  0.4666666666666667 0.1333333333333333 0  0.5 0.1333333333333333 0  0.5333333333333333 0.1333333333333333 0  0.5666666666666667 0.1333333333333333 0  0.6 0.1333333333333333 0  0.6333333333333333 0.1333333333333333 0  0.6666666666666666 0.1333333333333333 0  0.7 0.1333333333333333 0  0.7333333333333333 0.1333333333333333 0  0.7666666666666667 0.1333333333333333 0  0.8 0.1333333333333333 0  0.8333333333333334 0.1333333333333333 0  0.8666666666666667 0.1333333333333333 0  0.9 0.1333333333333333 0  0.9333333333333333 0.1333333333333333 0  0.9666666666666667 0.1333333333333333 0  1 0.1333333333333333 0  0 0.1666666666666667 0  0.03333333333333333 0.1666666666666667 0  0.06666666666666667 0.1666666666666667 0  0.1 0.1666666666666667 0  0.1333333333333333 0.1666666666666667 0  0.1666666666666667 0.1666666666666667 0  0.2 0.1666666666666667 0  0.2333333333333333 0.1666666666666667 0  0.2666666666666667 0.1666666666666667 0  0.3 0.1666666666666667 0  0.3333333333333333 0.1666666666666667 0  0.3666666666666666 0.1666666666666667 0  0.4 0.1666666666666667 0  0.4333333333333333 0.1666666666666667 0  0.4666666666666667 0.1666666666666667 0  0.5 0.1666666666666667 0  0.5333333333333333 0.1666666666666667 0  0.5666666666666667 0.1666666666666667 0  0.6 0.1666666666666667 0  0.6333333333333333 0.1666666666666667 0  0.6666666666666666 0.1666666666666667 0  0.7 0.1666666666666667 0  0.7333333333333333 0.1666666666666667 0  0.7666666666666667 0.1666666666666667 0  0.8 0.1666666666666667 0  0.8333333333333334 0.1666666666666667 0  0.8666666666666667 0.1666666666666667 0  0.9 0.1666666666666667 0  0.9333333333333333 0.1666666666666667 0  0.9666666666666667 0.1666666666666667 0  1 0.1666666666666667 0  0 0.2 0  0.03333333333333333 0.2 0  0.06666666666666667 0.2 0  0.1 0.2 0  0.1333333333333333 0.2 0  0.1666666666666667 0.2 0  0.2 0.2 0  0.2333333333333333 0.2 0  0.2666666666666667 0.2 0  0.3 0.2 0  0.3333333333333333 0.2 0  0.3666666666666666 0.2 0  0.4 0.2 0  0.4333333333333333 0.2 0  0.4666666666666667 0.2 0  0.5 0.2 0  0.5333333333333333 0.2 0  0.5666666666666667 0.2 0  0.6 0.2 0  0.6333333333333333 0.2 0  0.6666666666666666 0.2 0  0.7 0.2 0  0.7333333333333333 0.2 0  0.7666666666666667 0.2 0  0.8 0.2 0  0.8333333333333334 0.2 0  0.8666666666666667 0.2 0  0.9 0.2 0  0.9333333333333333 0.2 0  0.9666666666666667 0.2 0  1 0.2 0  0 0.2333333333333333 0  0.03333333333333333 0.2333333333333333 0  0.06666666666666667 0.2333333333333333 0  0.1 0.2333333333333333 0  0.1333333333333333 0.2333333333333333 0  0.1666666666666667 0.2333333333333333 0  0.2 0.2333333333333333 0  0.2333333333333333 0.2333333333333333 0  0.2666666666666667 0.2333333333333333 0  0.3 0.2333333333333333 0  0.3333333333333333 0.2333333333333333 0  0.3666666666666666 0.2333333333333333 0  0.4 0.2333333333333333 0  0.4333333333333333 0.2333333333333333 0  0.4666666666666667 0.2333333333333333 0  0.5 0.2333333333333333 0  0.5333333333333333 0.2333333333333333 0  0.5666666666666667 0.2333333333333333 0  0.6 0.2333333333333333 0  0.6333333333333333 0.2333333333333333 0  0.6666666666666666 0.2333333333333333 0  0.7 0.2333333333333333 0  0.7333333333333333 0.2333333333333333 0  0.7666666666666667 0.2333333333333333 0  0.8 0.2333333333333333 0  0.8333333333333334 0.2333333333333333 0  0.8666666666666667 0.2333333333333333 0  0.9 0.2333333333333333 0  0.9333333333333333 0.2333333333333333 0  0.9666666666666667 0.2333333333333333 0  1 0.2333333333333333 0  0 0.2666666666666667 0  0.03333333333333333 0.2666666666666667 0  0.06666666666666667 0.2666666666666667 0  0.1 0.2666666666666667 0  0.1333333333333333 0.2666666666666667 0  0.1666666666666667 0.2666666666666667 0  0.2 0.2666666666666667 0  0.2333333333333333 0.2666666666666667 0  0.2666666666666667 0.2666666666666667 0  0.3 0.2666666666666667 0  0.3333333333333333 0.2666666666666667 0  0.3666666666666666 0.2666666666666667 0  0.4 0.2666666666666667 0  0.4333333333333333 0.2666666666666667 0  0.4666666666666667 0.2666666666666667 0  0.5 0.2666666666666667 0  0.5333333333333333 0.2666666666666667 0  0.5666666666666667 0.2666666666666667 0  0.6 0.2666666666666667 0  0.6333333333333333 0.2666666666666667 0  0.6666666666666666 0.2666666666666667 0  0.7 0.2666666666666667 0  0.7333333333333333 0.2666666666666667 0  0.7666666666666667 0.2666666666666667 0  0.8 0.2666666666666667 0  0.8333333333333334 0.2666666666666667 0  0.8666666666666667 0.2666666666666667 0  0.9 0.2666666666666667 0  0.9333333333333333 0.2666666666666667 0  0.9666666666666667 0.2666666666666667 0  1 0.2666666666666667 0  0 0.3 0  0.03333333333333333 0.3 0  0.06666666666666667 0.3 0  0.1 0.3 0  0.1333333333333333 0.3 0  0.1666666666666667 0.3 0  0.2 0.3 0  0.2333333333333333 0.3 0  0.2666666666666667 0.3 0  0.3 0.3 0  0.3333333333333333 0.3 0  0.3666666666666666 0.3 0  0.4 0.3 0  0.4333333333333333 0.3 0  0.4666666666666667 0.3 0  0.5 0.3 0  0.5333333333333333 0.3 0  0.5666666666666667 0.3 0  0.6 0.3 0  0.6333333333333333 0.3 0  0.6666666666666666 0.3 0  0.7 0.3 0  0.7333333333333333 0.3 0  0.7666666666666667 0.3 0  0.8 0.3 0  0.8333333333333334 0.3 0  0.8666666666666667 0.3 0  0.9 0.3 0  0.9333333333333333 0.3 0  0.9666666666666667 0.3 0  1 0.3 0  0 0.3333333333333333 0  0.03333333333333333 0.3333333333333333 0  0.06666666666666667 0.3333333333333333 0  0.1 0.3333333333333333 0  0.1333333333333333 0.3333333333333333 0  0.1666666666666667 0.3333333333333333 0  0.2 0.3333333333333333 0  0.2333333333333333 0.3333333333333333 0  0.2666666666666667 0.3333333333333333 0  0.3 0.3333333333333333 0  0.3333333333333333 0.3333333333333333 0  0.3666666666666666 0.3333333333333333 0  0.4 0.3333333333333333 0  0.4333333333333333 0.3333333333333333 0  0.4666666666666667 0.3333333333333333 0  0.5 0.3333333333333333 0  0.5333333333333333 0.33333333333333
[...]
<PointData  Vectors="u_f"> 
<DataArray  type="Float64"  Name="u_f"  NumberOfComponents="3" format="ascii">2.7085945648395028e-06 -1.2443820927030350e-09 0.0000000000000000e+00  2.7085945618414127e-06 -1.2443566737457314e-09 0.0000000000000000e+00  2.7085945723660885e-06 -1.2443622579290207e-09 0.0000000000000000e+00  2.7085945748031039e-06 -1.2443697898273029e-09 0.0000000000000000e+00  2.7085945646655968e-06 -1.2443641425434471e-09 0.0000000000000000e+00  2.7085945524511377e-06 -1.2443614244486007e-09 0.0000000000000000e+00  2.7085945850121142e-06 -1.2443481758233135e-09 0.0000000000000000e+00  2.7085945628190378e-06 -1.2443561569065557e-09 0.0000000000000000e+00  2.7085945714033712e-06 -1.2443690560392726e-09 0.0000000000000000e+00  2.7085945628459803e-06 -1.2443645428308892e-09 0.0000000000000000e+00  2.7085945792395508e-06 -1.2443237730344961e-09 0.0000000000000000e+00  2.7085945346724447e-06 -1.2444550879695503e-09 0.0000000000000000e+00  2.7085945097109665e-06 -1.2443887230872107e-09 0.0000000000000000e+00  2.7085945557193567e-06 -1.2443418757413297e-09 0.0000000000000000e+00  2.7085945937114272e-06 -1.2443581208303710e-09 0.0000000000000000e+00  2.7085945617213916e-06 -1.2443671624801783e-09 0.0000000000000000e+00  2.7085945744370231e-06 -1.2443706639110944e-09 0.0000000000000000e+00  2.7085945688180369e-06 -1.2443670111255550e-09 0.0000000000000000e+00  2.7085945588511831e-06 -1.2443585214430737e-09 0.0000000000000000e+00  2.7085945757318857e-06 -1.2443731394157047e-09 0.0000000000000000e+00  2.7085945668498847e-06 -1.2443721822820268e-09 0.0000000000000000e+00  2.7085945532540978e-06 -1.2443673219121078e-09 0.0000000000000000e+00  2.7085945958370055e-06 -1.2442893133489570e-09 0.0000000000000000e+00  2.7085946192042729e-06 -1.2443608900995599e-09 0.0000000000000000e+00  2.7085945693894656e-06 -1.2443513234790607e-09 0.0000000000000000e+00  2.7085945903840649e-06 -1.2443748651403026e-09 0.0000000000000000e+00  2.7085945666005182e-06 -1.2443703510645575e-09 0.0000000000000000e+00  2.7085945744258016e-06 -1.2443769380264362e-09 0.0000000000000000e+00  2.7085945538582153e-06 -1.2443675481308911e-09 0.0000000000000000e+00  2.7085945683112266e-06 -1.2443787567755805e-09 0.0000000000000000e+00  2.7085945648395570e-06 2.5078779190365599e-10 0.0000000000000000e+00  4.1704971300664034e-04 -2.6092157081854597e-09 0.0000000000000000e+00  4.1704971301206558e-04 -2.6092189773802704e-09 0.0000000000000000e+00  4.1704971300497631e-04 -2.6092199251898096e-09 0.0000000000000000e+00  4.1704971301849739e-04 -2.6092101156538136e-09 0.0000000000000000e+00  4.1704971303550484e-04 -2.6092017786812083e-09 0.0000000000000000e+00  4.1704971302085250e-04 -2.6092270351708163e-09 0.0000000000000000e+00  4.1704971300671927e-04 -2.6092362538166283e-09 0.0000000000000000e+00  4.1704971301183540e-04 -2.6092374033961918e-09 0.0000000000000000e+00  4.1704971301970010e-04 -2.6092310754502121e-09 0.0000000000000000e+00  4.1704971301277703e-04 -2.6092294147777445e-09 0.0000000000000000e+00  4.1704971300725996e-04 -2.6092266070193784e-09 0.0000000000000000e+00  4.1704971296209871e-04 -2.6093031967955663e-09 0.0000000000000000e+00  4.1704971296465418e-04 -2.6092538614767499e-09 0.0000000000000000e+00  4.1704971300733933e-04 -2.6092383542414971e-09 0.0000000000000000e+00  4.1704971300236533e-04 -2.6092320965518181e-09 0.0000000000000000e+00  4.1704971301951166e-04 -2.6092136091700538e-09 0.0000000000000000e+00  4.1704971301544981e-04 -2.6092374766882587e-09 0.0000000000000000e+00  4.1704971301040285e-04 -2.6092316925780887e-09 0.0000000000000000e+00  4.1704971300913368e-04 -2.6092219900528471e-09 0.0000000000000000e+00  4.1704971301934144e-04 -2.6092135006414163e-09 0.0000000000000000e+00  4.1704971302332513e-04 -2.6092412575180746e-09 0.0000000000000000e+00  4.1704971300965518e-04 -2.6092418163158743e-09 0.0000000000000000e+00  4.1704971306412864e-04 -2.6091497041256032e-09 0.0000000000000000e+00  4.1704971305630255e-04 -2.6092002675202203e-09 0.0000000000000000e+00  4.1704971301174574e-04 -2.6092196209626800e-09 0.0000000000000000e+00  4.1704971301168600e-04 -2.6092410457733903e-09 0.0000000000000000e+00  4.1704971301440377e-04 -2.6092478074002390e-09 0.0000000000000000e+00  4.1704971300723437e-04 -2.6092253588858375e-09 0.0000000000000000e+00  4.1704971301389051e-04 -2.6092150793481997e-09 0.0000000000000000e+00  4.1704971301830646e-04 -2.6092426729440107e-09 0.0000000000000000e+00  4.1704971300664056e-04 1.9852642349020546e-09 0.0000000000000000e+00  7.5927909001781858e-04 -3.7242158881529291e-09 0.0000000000000000e+00  7.5927909003535533e-04 -3.7242265387045503e-09 0.0000000000000000e+00  7.5927909000377848e-04 -3.7242294425232289e-09 0.0000000000000000e+00  7.5927909003280214e-04 -3.7242311428774960e-09 0.0000000000000000e+00  7.5927909002042966e-04 -3.7242216992597332e-09 0.0000000000000000e+00  7.5927909002531475e-04 -3.7242096810954917e-09 0.0000000000000000e+00  7.5927909001486694e-04 -3.7242094334637155e-09 0.0000000000000000e+00  7.5927909003296391e-04 -3.7242145450432779e-09 0.0000000000000000e+00  7.5927909001386091e-04 -3.7242270108745965e-09 0.0000000000000000e+00  7.5927909001993754e-04 -3.7242297215968681e-09 0.0000000000000000e+00  7.5927909002752392e-04 -3.7242241739511919e-09 0.0000000000000000e+00  7.5927908995782848e-04 -3.7243061145903616e-09 0.0000000000000000e+00  7.5927908997958375e-04 -3.7242163931743011e-09 0.0000000000000000e+00  7.5927909001357544e-04 -3.7242261904588125e-09 0.0000000000000000e+00  7.5927909001638624e-04 -3.7241973460189551e-09 0.0000000000000000e+00  7.5927909002763885e-04 -3.7241978174300597e-09 0.0000000000000000e+00  7.5927909001517312e-04 -3.7242183693496009e-09 0.0000000000000000e+00  7.5927909002341783e-04 -3.7242215082233104e-09 0.0000000000000000e+00  7.5927909002077292e-04 -3.7242333083544951e-09 0.0000000000000000e+00  7.5927909003651597e-04 -3.7242421635757389e-09 0.0000000000000000e+00  7.5927909001708208e-04 -3.7242190616126880e-09 0.0000000000000000e+00  7.5927909002040158e-04 -3.7242367632731380e-09 0.0000000000000000e+00  7.5927909006486959e-04 -3.7241272624315841e-09 0.0000000000000000e+00  7.5927909007876928e-04 -3.7242010815291202e-09 0.0000000000000000e+00  7.5927909002888438e-04 -3.7242268260181260e-09 0.0000000000000000e+00  7.5927909001100588e-04 -3.7242140498881457e-09 0.0000000000000000e+00  7.5927909001483865e-04 -3.7242323292115131e-09 0.0000000000000000e+00  7.5927909001348860e-04 -3.7242106664184260e-09 0.0000000000000000e+00  7.5927909003320460e-04 -3.7242109170859683e-09 0.0000000000000000e+00  7.5927909001645313e-04 -3.7242145335507348e-09 0.0000000000000000e+00  7.5927909001781901e-04 3.4850369714641855e-09 0.0000000000000000e+00  9.7022226072704864e-04 -4.0960499972288872e-09 0.0000000000000000e+00  9.7022226074059315e-04 -4.0960344014143169e-09 0.0000000000000000e+00  9.7022226073071823e-04 -4.0960476132851503e-09 0.0000000000000000e+00  9.7022226074455829e-04 -4.0960495945562003e-09 0.0000000000000000e+00  9.7022226074247055e-04 -4.0960680860579329e-09 0.0000000000000000e+00  9.7022226072415968e-04 -4.0960526849660728e-09 0.0000000000000000e+00  9.7022226074731694e-04 -4.0960473411504050e-09 0.0000000000000000e+00  9.7022226073236123e-04 -4.0960698196972067e-09 0.0000000000000000e+00  9.7022226074147981e-04 -4.0960505458351865e-09 0.0000000000000000e+00  9.7022226073091838e-04 -4.0960621088513560e-09 0.0000000000000000e+00  9.7022226073132062e-04 -4.0960780201687585e-09 0.0000000000000000e+00  9.7022226070054337e-04 -4.0960435661752809e-09 0.0000000000000000e+00  9.7022226075206704e-04 -4.0960595507847503e-09 0.0000000000000000e+00  9.7022226073360091e-04 -4.0960878426067604e-09 0.0000000000000000e+00  9.7022226071640308e-04 -4.0960685730815488e-09 0.0000000000000000e+00  9.7022226073192625e-04 -4.0960723539113647e-09 0.0000000000000000e+00  9.7022226072924263e-04 -4.0960845746045721e-09 0.0000000000000000e+00  9.7022226071755125e-04 -4.0960797056694559e-09 0.0000000000000000e+00  9.7022226074194168e-04 -4.0960434070144019e-09 0.0000000000000000e+00  9.7022226074672344e-04 -4.0960518874269547e-09 0.0000000000000000e+00  9.7022226073639663e-04 -4.0960523477791971e-09 0.0000000000000000e+00  9.7022226073380648e-04 -4.0960404926789623e-09 0.0000000000000000e+00  9.7022226077084282e-04 -4.0960966851428388e-09 0.0000000000000000e+00  9.7022226071818139e-04 -4.0960546079070459e-09 0.0000000000000000e+00  9.7022226075126517e-04 -4.0960653196076696e-09 0.0000000000000000e+00  9.7022226073058705e-04 -4.0960679644104492e-09 0.0000000000000000e+00  9.7022226073004494e-04 -4.0960679967196739e-09 0.0000000000000000e+00  9.7022226073246662e-04 -4.0960700445607373e-09 0.0000000000000000e+00  9.7022226073380279e-04 -4.0960509495920755e-09 0.0000000000000000e+00  9.7022226073738608e-04 -4.0960520136280876e-09 0.0000000000000000e+00  9.7022226072704864e-04 4.4023352678385458e-09 0.0000000000000000e+00  1.0134052930894778e-03 -3.4697024538449597e-09 0.0000000000000000e+00  1.0134052930966103e-03 -3.4697006565630184e-09 0.0000000000000000e+00  1.0134052930764368e-03 -3.4697080001895933e-09 0.0000000000000000e+00  1.0134052930926547e-03 -3.4696879972016120e-09 0.0000000000000000e+00  1.0134052930981003e-03 -3.4697001718162271e-09 0.0000000000000000e+00  1.0134052930949279e-03 -3.4697132539080605e-09 0.0000000000000000e+00  1.0134052930885398e-03 -3.4697005313376675e-09 0.0000000000000000e+00  1.0134052930936741e-03 -3.4696800073905423e-09 0.0000000000000000e+00  1.0134052930967745e-03 -3.4696995390758392e-09 0.0000000000000000e+00  1.0134052931066650e-03 -3.4696729264661538e-09 0.0000000000000000e+00  1.0134052930996988e-03 -3.4696982001945764e-09 0.0000000000000000e+00  1.0134052930821974e-03 -3.4697011652706777e-09 0.0000000000000000e+00  1.0134052930929984e-03 -3.4696813932177592e-09 0.0000000000000000e+00  1.0134052930920595e-03 -3.4696929022406606e-09 0.0000000000000000e+00  1.0134052930876449e-03 -3.4696944367119953e-09 0.0000000000000000e+00  1.0134052930952746e-03 -3.4697124626573150e-09 0.0000000000000000e+00  1.0134052930825281e-03 -3.4697053842265915e-09 0.0000000000000000e+00  1.0134052930827954e-03 -3.4696915251954813e-09 0.0000000000000000e+00  1.0134052931091838e-03 -3.4696838129401678e-09 0.0000000000000000e+00  1.0134052930981393e-03 -3.4696856003558693e-09 0.0000000000000000e+00  1.0134052931024854e-03 -3.4697013456819192e-09 0.0000000000000000e+00  1.0134052930811386e-03 -3.4697066286738451e-09 0.0000000000000000e+00  1.0134052930876167e-03 -3.4696944769358959e-09 0.0000000000000000e+00  1.0134052930867053e-03 -3.4696733221999468e-09 0.0000000000000000e+00  1.0134052931083568e-03 -3.4696988233939852e-09 0.0000000000000000e+00  1.0134052930728756e-03 -3.4697133908427949e-09 0.0000000000000000e+00  1.0134052931077009e-03 -3.4696840758591946e-09 0.0000000000000000e+00  1.0134052930962001e-03 -3.4697016403680697e-09 0.0000000000000000e+00  1.0134052930841368e-03 -3.4696960526069132e-09 0.0000000000000000e+00  1.0134052930938463e-03 -3.4697045886390374e-09 0.0000000000000000e+00  1.0134052930894782e-03 4.4922810589880966e-09 0.0000000000000000e+00  8.8136142328012308e-04 -1.9984801031928956e-09 0.0000000000000000e+00  8.8136142328490376e-04 -1.9984716409949393e-09 0.0000000000000000e+00  8.8136142328124739e-04 -1.9984752230904970e-09 0.0000000000000000e+00  8.8136142327124053e-04 -1.9984833362837739e-09 0.0000000000000000e+00  8.8136142330000951e-04 -1.9984749539915178e-09 0.0000000000000000e+00  8.8136142327834347e-04 -1.9984664007205791e-09 0.0000000000000000e+00  8.8136142328619005e-04 -1.9984577748080948e-09 0.0000000000000000e+00  8.8136142329690750e-04 -1.9984764066055885e-09 0.0000000000000000e+00  8.8136142328268309e-04 -1.9984656890502731e-09 0.0000000000000000e+00  8.8136142328445371e-04 -1.9984808886973696e-09 0.0000000000000000e+00  8.8136142330089368e-04 -1.9984749537746774e-09 0.0000000000000000e+00  8.8136142326920223e-04 -1.9984905734416955e-09 0.0000000000000000e+00  8.8136142326750177e-04 -1.9984913801965321e-09 0.0000000000000000e+00  8.8136142328624340e-04 -1.9984750935283374e-09 0.0000000000000000e+00  8.8136142327884708e-04 -1.9984757462180452e-09 0.0000000000000000e+00  8.8136142327930678e-04 -1.9984438738183605e-09 0.0000000000000000e+00  8.8136142327935741e-04 -1.9984540168549447e-09 0.0000000000000000e+00  8.8136142329239635e-04 -1.9984559685272754e-09 0.0000000000000000e+00  8.8136142329420957e-04 -1.9984600085898307e-09 0.0000000000000000e+00  8.8136142327551327e-04 -1.9984904611183504e-09 0.0000000000000000e+00  8.8136142329119647e-04 -1.9984756309673543e-09 0.0000000000000000e+00  8.8136142328357886e-04 -1.9984711218789392e-09 0.0000000000000000e+00  8.8136142327899366e-04 -1.9984653169520875e-09 0.0000000000000000e+00  8.8136142328627939e-04 -1.9984831932775074e-09 0.0000000000000000e+00  8.8136142327355823e-04 -1.9984724487255578e-09 0.0000000000000000e+00  8.8136142329366758e-04 -1.9984606627974216e-09 0.0000000000000000e+00  8.8136142329481900e-04 -1.9984718552332886e-09 0.0000000000000000e+00  8.8136142328359176e-04 -1.9984704756944444e-09 0.0000000000000000e+00  8.8136142328664943e-04 -1.9984838535566304e-09 0.0000000000000000e+00  8.8136142328588865e-04 -1.9984929162941700e-09 0.0000000000000000e+00  8.8136142328012351e-04 3.7122681632165469e-09 0.0000000000000000e+00  5.9692214334555120e-04 -1.8752188566057218e-10 0.0000000000000000e+00  5.9692214333969336e-04 -1.8751664641620397e-10 0.0000000000000000e+00  5.9692214333095924e-04 -1.8752438393342813e-10 0.0000000000000000e+00  5.9692214333595145e-04 -1.8753820512588254e-10 0.0000000000000000e+00  5.9692214333363853e-04 -1.8752683292929534e-10 0.0000000000000000e+00  5.9692214334205822e-04 -1.8750247735748252e-10 0.0000000000000000e+00  5.9692214333806923e-04 -1.8751891716923402e-10 0.0000000000000000e+00  5.9692214335244239e-04 -1.8751505003692520e-10 0.0000000000000000e+00  5.9692214333517853e-04 -1.8753139096943858e-10 0.0000000000000000e+00  5.9692214334139241e-04 -1.8751454826815978e-10 0.0000000000000000e+00  5.9692214334576121e-04 -1.8750786052968912e-10 0.0000000000000000e+00  5.9692214332349354e-04 -1.8752228264119764e-10 0.0000000000000000e+00  5.9692214335602405e-04 -1.8750004299834463e-10 0.0000000000000000e+00  5.9692214334003185e-04 -1.8751974089183457e-10 0.0000000000000000e+00  5.9692214334648675e-04 -1.8754415777528025e-10 0.0000000000000000e+00  5.9692214331686223e-04 -1.8755477731871931e-10 0.0000000000000000e+00  5.9692214333552547e-04 -1.8751018473388628e-10 0.0000000000000000e+00  5.9692214333828823e-04 -1.8753067702230800e-10 0.0000000000000000e+00  5.9692214335495015e-04 -1.8753623556421600e-10 0.0000000000000000e+00  5.9692214332619255e-04 -1.8751841464152708e-10 0.0000000000000000e+00  5.9692214334070698e-04 -1.8752410269138459e-10 0.0000000000000000e+00  5.9692214332654513e-04 -1.8751155988171175e-10 0.0000000000000000e+00  5.9692214334145823e-04 -1.8751194813450972e-10 0.0000000000000000e+00  5.9692214334870135e-04 -1.8752872437419535e-10 0.0000000000000000e+00  5.9692214333880768e-04 -1.8753381085447746e-10 0.0000000000000000e+00  5.9692214332207659e-04 -1.8754222588963920e-10 0.0000000000000000e+00  5.9692214333945484e-04 -1.8751569866087489e-10 0.0000000000000000e+00  5.9692214334635947e-04 -1.8753571720715734e-10 0.0000000000000000e+00  5.9692214331571645e-04 -1.8753606068240558e-10 0.0000000000000000e+00  5.9692214332933359e-04 -1.8752464907506941e-10 0.0000000000000000e+00  5.9692214334555131e-04 2.2461915967137377e-09 0.0000000000000000e+00  2.0926948982601617e-04 1.3595580283863422e-09 0.0000000000000000e+00  2.0926948980348891e-04 1.3595501643698295e-09 0.0000000000000000e+00  2.0926948980969331e-04 1.3595443212384038e-09 0.0000000000000000e+00  2.0926948980976438e-04 1.3595436690772445e-09 0.0000000000000000e+00  2.0926948981646711e-04 1.3595198277560746e-09 0.0000000000000000e+00  2.0926948979555892e-04 1.3595488468066920e-09 0.0000000000000000e+00  2.0926948981920309e-04 1.3595558713796725e-09 0.0000000000000000e+00  2.0926948982548680e-04 1.3595574447467602e-09 0.0000000000000000e+00  2.0926948983616386e-04 1.3595704189740300e-09 0.0000000000000000e+00  2.0926948980977772e-04 1.3595336676916741e-09 0.0000000000000000e+00  2.0926948980191305e-04 1.3595328767797418e-09 0.0000000000000000e+00  2.0926948981505499e-04 1.3595508492874470e-09 0.0000000000000000e+00  2.0926948982347127e-04 1.3595297015310493e-09 0.0000000000000000e+00  2.0926948980427775e-04 1.3595404835150789e-09 0.0000000000000000e+00  2.0926948980444434e-04 1.3595482404124169e-09 0.0000000000000000e+00  2.0926948981748943e-04 1.3595450560428737e-09 0.0000000000000000e+00  2.0926948981156519e-04 1.3595432141731180e-09 0.0000000000000000e+00  2.0926948982021314e-04 1.3595632029716033e-09 0.0000000000000000e+00  2.0926948981754188e-04 1.3595493597562923e-09 0.0000000000000000e+00  2.0926948983351266e-04 1.3595341173509726e-09 0.0000000000000000e+00  2.0926948981477939e-04 1.3595551094972534e-09 0.0000000000000000e+00  2.0926948981340126e-04 1.3595492946770569e-09 0.0000000000000000e+00  2.0926948982582919e-04 1.3595479452925855e-09 0.0000000000000000e+00  2.0926948980478678e-04 1.3595509904505698e-09 0.0000000000000000e+00  2.0926948981781103e-04 1.3595533465438634e-09 0.0000000000000000e+00  2.0926948982021495e-04 1.3595510868361430e-09 0.0000000000000000e+00  2.0926948982004061e-04 1.3595322844665424e-09 0.0000000000000000e+00  2.0926948981015543e-04 1.3595586971628998e-09 0.0000000000000000e+00  2.0926948979546253e-04 1.3595332253778453e-09 0.0000000000000000e+00  2.0926948980940947e-04 1.3595478277515175e-09 0.0000000000000000e+00  2.0926948982601614e-04 4.3938588598983766e-10 0.0000000000000000e+00  -2.1456791139058050e-04 2.2368650493616478e-09 0.0000000000000000e+00  -2.1456791139451019e-04 2.2368668577566614e-09 0.0000000000000000e+00  -2.1456791138812955e-04 2.2368653937584679e-09 0.0000000000000000e+00  -2.1456791139786845e-04 2.2368759271078342e-09 0.0000000000000000e+00  -2.1456791138070184e-04 2.2368638827059001e-09 0.0000000000000000e+00  -2.1456791140147776e-04 2.2368530227406293e-09 0.0000000000000000e+00  -2.1456791140448479e-04 2.2368765563787751e-09 0.0000000000000000e+00  -2.1456791137795025e-04 2.2368664793701032e-09 0.0000000000000000e+00  -2.1456791139426733e-04 2.2368662714201265e-09 0.0000000000000000e+00  -2.1456791137548521e-04 2.2368815046774904e-09 0.0000000000000000e+00  -2.1456791140686175e-04 2.2368493408984717e-09 0.0000000000000000e+00  -2.1456791138444088e-04 2.2368856838431844e-09 0.0000000000000000e+00  -2.1456791138504966e-04 2.2368821073854780e-09 0.0000000000000000e+00  -2.1456791138692733e-04 2.2368535996988154e-09 0.0000000000000000e+00  -2.1456791139176830e-04 2.2368654286155677e-09 0.0000000000000000e+00  -2.1456791138915504e-04 2.2368658482018085e-09 0.0000000000000000e+00  -2.1456791139393670e-04 2.2368812892465187e-09 0.0000000000000000e+00  -2.1456791137890044e-04 2.2368879542167437e-09 0.0000000000000000e+00  -2.1456791137953042e-04 2.2368609742251522e-09 0.0000000000000000e+00  -2.1456791139581589e-04 2.2368452554620555e-09 0.0000000000000000e+00  -2.1456791138483049e-04 2.2368496451256013e-09 0.0000000000000000e+00  -2.1456791140120064e-04 2.2368674942917569e-09 0.0000000000000000e+00  -2.1456791140594521e-04 2.2368556968710776e-09 0.0000000000000000e+00  -2.1456791138773848e-04 2.2368863592469278e-09 0.0000000000000000e+00  -2.1456791138070672e-04 2.2368798823315696e-09 0.0000000000000000e+00  -2.1456791138854556e-04 2.2368666165216780e-09 0.0000000000000000e+00  -2.1456791138279533e-04 2.2368521267017438e-09 0.0000000000000000e+00  -2.1456791138885385e-04 2.2368587436418126e-09 0.0000000000000000e+00  -2.1456791138304036e-04 2.2368811953546106e-09 0.0000000000000000e+00  -2.1456791139712566e-04 2.2368624919997734e-09 0.0000000000000000e+00  -2.1456791139058055e-04 -1.3211152177592048e-09 0.0000000000000000e+00  -6.0130467677932322e-04 2.3979747942100976e-09 0.0000000000000000e+00  -6.0130467675900267e-04 2.3979665704281991e-09 0.00