<?xml version="1.0"?>
<VTKFile type="UnstructuredGrid"  version="0.1"  >
<UnstructuredGrid>
<Piece  NumberOfPoints="961" NumberOfCells="1800">
<Points>
<DataArray  type="Float64"  NumberOfComponents="3"  format="ascii">0 0 0  0.03333333333333333 0 0  0.06666666666666667 0 0  0.1 0 0  0.1333333333333333 0 0  0.1666666666666667 0 0  0.2 0 0  0.2333333333333333 0 0  0.2666666666666667 0 0  0.3 0 0  0.3333333333333333 0 0  0.3666666666666666 0 0  0.4 0 0  0.4333333333333333 0 0  0.4666666666666667 0 0  0.5 0 0  0.5333333333333333 0 0  0.5666666666666667 0 0  0.6 0 0  0.6333333333333333 0 0  0.6666666666666666 0 0  0.7 0 0  0.7333333333333333 0 0  0.7666666666666667 0 0  0.8 0 0  0.8333333333333334 0 0  0.8666666666666667 0 0  0.9 0 0  0.9333333333333333 0 0  0.9666666666666667 0 0  1 0 0  0 0.03333333333333333 0  0.03333333333333333 0.03333333333333333 0  0.06666666666666667 0.03333333333333333 0  0.1 0.03333333333333333 0  0.1333333333333333 0.03333333333333333 0  0.1666666666666667 0.03333333333333333 0  0.2 0.03333333333333333 0  0.2333333333333333 0.03333333333333333 0  0.2666666666666667 0.03333333333333333 0  0.3 0.03333333333333333 0  0.3333333333333333 0.03333333333333333 0  0.3666666666666666 0.03333333333333333 0  0.4 0.03333333333333333 0  0.4333333333333333 0.03333333333333333 0  0.4666666666666667 0.03333333333333333 0  0.5 0.03333333333333333 0  0.5333333333333333 0.03333333333333333 0  0.5666666666666667 0.03333333333333333 0  0.6 0.03333333333333333 0  0.6333333333333333 0.03333333333333333 0  0.6666666666666666 0.03333333333333333 0  0.7 0.03333333333333333 0  0.7333333333333333 0.03333333333333333 0  0.7666666666666667 0.03333333333333333 0  0.8 0.03333333333333333 0  0.8333333333333334 0.03333333333333333 0  0.8666666666666667 0.03333333333333333 0  0.9 0.03333333333333333 0  0.9333333333333333 0.03333333333333333 0  0.9666666666666667 0.03333333333333333 0  1 0.03333333333333333 0  0 0.06666666666666667 0  0.03333333333333333 0.06666666666666667 0  0.06666666666666667 0.06666666666666667 0  0.1 0.06666666666666667 0  0.1333333333333333 0.06666666666666667 0  0.1666666666666667 0.06666666666666667 0  0.2 0.06666666666666667 0  0.2333333333333333 0.06666666666666667 0  0.2666666666666667 0.06666666666666667 0  0.3 0.06666666666666667 0  0.3333333333333333 0.06666666666666667 0  0.3666666666666666 0.06666666666666667 0  0.4 0.06666666666666667 0  0.4333333333333333 0.06666666666666667 0  0.4666666666666667 0.06666666666666667 0  0.5 0.06666666666666667 0  0.5333333333333333 0.06666666666666667 0  0.5666666666666667 0.06666666666666667 0  0.6 0.06666666666666667 0  0.6333333333333333 0.06666666666666667 0  0.6666666666666666 0.06666666666666667 0  0.7 0.06666666666666667 0  0.7333333333333333 0.06666666666666667 0  0.7666666666666667 0.06666666666666667 0  0.8 0.06666666666666667 0  0.8333333333333334 0.06666666666666667 0  0.8666666666666667 0.06666666666666667 0  0.9 0.06666666666666667 0  0.9333333333333333 0.06666666666666667 0  0.9666666666666667 0.06666666666666667 0  1 0.06666666666666667 0  0 0.1 0  0.03333333333333333 0.1 0  0.06666666666666667 0.1 0  0.1 0.1 0  0.1333333333333333 0.1 0  0.1666666666666667 0.1 0  0.2 0.1 0  0.2333333333333333 0.1 0  0.2666666666666667 0.1 0  0.3 0.1 0  0.3333333333333333 0.1 0  0.3666666666666666 0.1 0  0.4 0.1 0  0.4333333333333333 0.1 0  0.4666666666666667 0.1 0  0.5 0.1 0  0.5333333333333333 0.1 0  0.5666666666666667 0.1 0  0.6 0.1 0  0.6333333333333333 0.1 0  0.6666666666666666 0.1 0  0.7 0.1 0  0.7333333333333333 0.1 0  0.7666666666666667 0.1 0  0.8 0.1 0  0.8333333333333334 0.1 0  0.8666666666666667 0.1 0  0.9 0.1 0  0.9333333333333333 0.1 0  0.9666666666666667 0.1 0  1 0.1 0  0 0.1333333333333333 0  0.03333333333333333 0.1333333333333333 0  0.06666666666666667 0.1333333333333333 0  0.1 0.1333333333333333 0  0.1333333333333333 0.1333333333333333 0  0.1666666666666667 0.1333333333333333 0  0.2 0.1333333333333333 0  0.2333333333333333 0.1333333333333333 0  0.2666666666666667 0.1333333333333333 0  0.3 0.1333333333333333 0  0.3333333333333333 0.1333333333333333 0  0.3666666666666666 0.1333333333333333 0  0.4 0.1333333333333333 0  0.4333333333333333 0.1333333333333333 0  0.4666666666666667 0.1333333333333333 0  0.5 0.1333333333333333 0  0.5333333333333333 0.1333333333333333 0  0.5666666666666667 0.1333333333333333 0  0.6 0.1333333333333333 0  0.6333333333333333 0.1333333333333333 0  0.6666666666666666 0.1333333333333333 0  0.7 0.1333333333333333 0  0.7333333333333333 0.1333333333333333 0  0.7666666666666667 0.1333333333333333 0  0.8 0.1333333333333333 0  0.8333333333333334 0.1333333333333333 0  0.8666666666666667 0.1333333333333333 0  0.9 0.1333333333333333 0  0.9333333333333333 0.1333333333333333 0  0.9666666666666667 0.1333333333333333 0  1 0.1333333333333333 0  0 0.1666666666666667 0  0.03333333333333333 0.1666666666666667 0  0.06666666666666667 0.1666666666666667 0  0.1 0.1666666666666667 0  0.1333333333333333 0.1666666666666667 0  0.1666666666666667 0.1666666666666667 0  0.2 0.1666666666666667 0  0.2333333333333333 0.1666666666666667 0  0.2666666666666667 0.1666666666666667 0  0.3 0.1666666666666667 0  0.3333333333333333 0.1666666666666667 0  0.3666666666666666 0.1666666666666667 0  0.4 0.1666666666666667 0  0.4333333333333333 0.1666666666666667 0  0.4666666666666667 0.1666666666666667 0  0.5 0.1666666666666667 0  0.5333333333333333 0.1666666666666667 0  0.5666666666666667 0.1666666666666667 0  0.6 0.1666666666666667 0  0.6333333333333333 0.1666666666666667 0  0.6666666666666666 0.1666666666666667 0  0.7 0.1666666666666667 0  0.7333333333333333 0.1666666666666667 0  0.7666666666666667 0.1666666666666667 0  0.8 0.1666666666666667 0  0.8333333333333334 0.1666666666666667 0  0.8666666666666667 0.1666666666666667 0  0.9 0.1666666666666667 0  0.9333333333333333 0.1666666666666667 0  0.9666666666666667 0.1666666666666667 0  1 0.1666666666666667 0  0 0.2 0  0.03333333333333333 0.2 0  0.06666666666666667 0.2 0  0.1 0.2 0  0.1333333333333333 0.2 0  0.1666666666666667 0.2 0  0.2 0.2 0  0.2333333333333333 0.2 0  0.2666666666666667 0.2 0  0.3 0.2 0  0.3333333333333333 0.2 0  0.3666666666666666 0.2 0  0.4 0.2 0  0.4333333333333333 0.2 0  0.4666666666666667 0.2 0  0.5 0.2 0  0.5333333333333333 0.2 0  0.5666666666666667 0.2 0  0.6 0.2 0  0.6333333333333333 0.2 0  0.6666666666666666 0.2 0  0.7 0.2 0  0.7333333333333333 0.2 0  0.7666666666666667 0.2 0  0.8 0.2 0  0.8333333333333334 0.2 0  0.8666666666666667 0.2 0  0.9 0.2 0  0.9333333333333333 0.2 0  0.9666666666666667 0.2 0  1 0.2 0  0 0.2333333333333333 0  0.03333333333333333 0.2333333333333333 0  0.06666666666666667 0.2333333333333333 0  0.1 0.2333333333333333 0  0.1333333333333333 0.2333333333333333 0  0.1666666666666667 0.2333333333333333 0  0.2 0.2333333333333333 0  0.2333333333333333 0.2333333333333333 0  0.2666666666666667 0.2333333333333333 0  0.3 0.2333333333333333 0  0.3333333333333333 0.2333333333333333 0  0.3666666666666666 0.2333333333333333 0  0.4 0.2333333333333333 0  0.4333333333333333 0.2333333333333333 0  0.4666666666666667 0.2333333333333333 0  0.5 0.2333333333333333 0  0.5333333333333333 0.2333333333333333 0  0.5666666666666667 0.2333333333333333 0  0.6 0.2333333333333333 0  0.6333333333333333 0.2333333333333333 0  0.6666666666666666 0.2333333333333333 0  0.7 0.2333333333333333 0  0.7333333333333333 0.2333333333333333 0  0.7666666666666667 0.2333333333333333 0  0.8 0.2333333333333333 0  0.8333333333333334 0.2333333333333333 0  0.8666666666666667 0.2333333333333333 0  0.9 0.2333333333333333 0  0.9333333333333333 0.2333333333333333 0  0.9666666666666667 0.2333333333333333 0  1 0.2333333333333333 0  0 0.2666666666666667 0  0.03333333333333333 0.2666666666666667 0  0.06666666666666667 0.2666666666666667 0  0.1 0.2666666666666667 0  0.1333333333333333 0.2666666666666667 0  0.1666666666666667 0.2666666666666667 0  0.2 0.2666666666666667 0  0.2333333333333333 0.2666666666666667 0  0.2666666666666667 0.2666666666666667 0  0.3 0.2666666666666667 0  0.3333333333333333 0.2666666666666667 0  0.3666666666666666 0.2666666666666667 0  0.4 0.2666666666666667 0  0.4333333333333333 0.2666666666666667 0  0.4666666666666667 0.2666666666666667 0  0.5 0.2666666666666667 0  0.5333333333333333 0.2666666666666667 0  0.5666666666666667 0.2666666666666667 0  0.6 0.2666666666666667 0  0.6333333333333333 0.2666666666666667 0  0.6666666666666666 0.2666666666666667 0  0.7 0.2666666666666667 0  0.7333333333333333 0.2666666666666667 0  0.7666666666666667 0.2666666666666667 0  0.8 0.2666666666666667 0  0.8333333333333334 0.2666666666666667 0  0.8666666666666667 0.2666666666666667 0  0.9 0.2666666666666667 0  0.9333333333333333 0.2666666666666667 0  0.9666666666666667 0.2666666666666667 0  1 0.2666666666666667 0  0 0.3 0  0.03333333333333333 0.3 0  0.06666666666666667 0.3 0  0.1 0.3 0  0.1333333333333333 0.3 0  0.1666666666666667 0.3 0  0.2 0.3 0  0.2333333333333333 0.3 0  0.2666666666666667 0.3 0  0.3 0.3 0  0.3333333333333333 0.3 0  0.3666666666666666 0.3 0  0.4 0.3 0  0.4333333333333333 0.3 0  0.4666666666666667 0.3 0  0.5 0.3 0  0.5333333333333333 0.3 0  0.5666666666666667 0.3 0  0.6 0.3 0  0.6333333333333333 0.3 0  0.6666666666666666 0.3 0  0.7 0.3 0  0.7333333333333333 0.3 0  0.7666666666666667 0.3 0  0.8 0.3 0  0.8333333333333334 0.3 0  0.8666666666666667 0.3 0  0.9 0.3 0  0.9333333333333333 0.3 0  0.9666666666666667 0.3 0  1 0.3 0  0 0.3333333333333333 0  0.03333333333333333 0.3333333333333333 0  0.06666666666666667 0.3333333333333333 0  0.1 0.3333333333333333 0  0.1333333333333333 0.3333333333333333 0  0.1666666666666667 0.3333333333333333 0  0.2 0.3333333333333333 0  0.2333333333333333 0.3333333333333333 0  0.2666666666666667 0.3333333333333333 0  0.3 0.3333333333333333 0  0.3333333333333333 0.3333333333333333 0  0.3666666666666666 0.3333333333333333 0  0.4 0.3333333333333333 0  0.4333333333333333 0.3333333333333333 0  0.4666666666666667 0.3333333333333333 0  0.5 0.3333333333333333 0  0.5333333333333333 0.33333333333333
[...]
<PointData  Vectors="u_f"> 
<DataArray  type="Float64"  Name="u_f"  NumberOfComponents="3" format="ascii">2.7092300382727634e-06 1.4445566090971057e-09 0.0000000000000000e+00  2.7092300273012337e-06 1.4445708016830143e-09 0.0000000000000000e+00  2.7092300267691073e-06 1.4445848567920874e-09 0.0000000000000000e+00  2.7092300449127428e-06 1.4445988446806259e-09 0.0000000000000000e+00  2.7092300384948080e-06 1.4445816827902275e-09 0.0000000000000000e+00  2.7092300247962930e-06 1.4445851160248269e-09 0.0000000000000000e+00  2.7092300450402992e-06 1.4445593667653314e-09 0.0000000000000000e+00  2.7092300289022751e-06 1.4445636242646324e-09 0.0000000000000000e+00  2.7092300357745990e-06 1.4445777068582306e-09 0.0000000000000000e+00  2.7092300416366091e-06 1.4445828851704368e-09 0.0000000000000000e+00  2.7092300257138533e-06 1.4446227459175183e-09 0.0000000000000000e+00  2.7092300146559127e-06 1.4444471341137737e-09 0.0000000000000000e+00  2.7092299550077171e-06 1.4445419699825324e-09 0.0000000000000000e+00  2.7092300492130681e-06 1.4445841652337317e-09 0.0000000000000000e+00  2.7092300452953577e-06 1.4445471053061223e-09 0.0000000000000000e+00  2.7092300217806931e-06 1.4445738256312936e-09 0.0000000000000000e+00  2.7092300456215941e-06 1.4445809919908133e-09 0.0000000000000000e+00  2.7092300290940162e-06 1.4445872066918761e-09 0.0000000000000000e+00  2.7092300452672769e-06 1.4445779823540027e-09 0.0000000000000000e+00  2.7092300448689410e-06 1.4445669223534310e-09 0.0000000000000000e+00  2.7092300407934250e-06 1.4445822235360610e-09 0.0000000000000000e+00  2.7092300282764194e-06 1.4445488752119588e-09 0.0000000000000000e+00  2.7092300664415285e-06 1.4447246600543702e-09 0.0000000000000000e+00  2.7092301247241715e-06 1.4445795326004790e-09 0.0000000000000000e+00  2.7092300273784831e-06 1.4445653648428002e-09 0.0000000000000000e+00  2.7092300485907360e-06 1.4445745677676806e-09 0.0000000000000000e+00  2.7092300358008367e-06 1.4445635291801019e-09 0.0000000000000000e+00  2.7092300374294710e-06 1.4445523134338882e-09 0.0000000000000000e+00  2.7092300387350130e-06 1.4445498003616726e-09 0.0000000000000000e+00  2.7092300180305462e-06 1.4445448797101128e-09 0.0000000000000000e+00  2.7092300382728176e-06 -3.8509874089413935e-10 0.0000000000000000e+00  4.1705167714971314e-04 1.1914167591950756e-09 0.0000000000000000e+00  4.1705167715059047e-04 1.1914193362352193e-09 0.0000000000000000e+00  4.1705167715138085e-04 1.1914181205193233e-09 0.0000000000000000e+00  4.1705167715007569e-04 1.1914334961324324e-09 0.0000000000000000e+00  4.1705167716407534e-04 1.1914283839023487e-09 0.0000000000000000e+00  4.1705167714312086e-04 1.1914338450286915e-09 0.0000000000000000e+00  4.1705167715699507e-04 1.1914516935985359e-09 0.0000000000000000e+00  4.1705167715956430e-04 1.1914557283485006e-09 0.0000000000000000e+00  4.1705167715669410e-04 1.1914310550512411e-09 0.0000000000000000e+00  4.1705167715765773e-04 1.1914362761352229e-09 0.0000000000000000e+00  4.1705167715539034e-04 1.1914585483583512e-09 0.0000000000000000e+00  4.1705167710026051e-04 1.1913268891348971e-09 0.0000000000000000e+00  4.1705167708188859e-04 1.1913831784180276e-09 0.0000000000000000e+00  4.1705167713379108e-04 1.1914232700459618e-09 0.0000000000000000e+00  4.1705167716474170e-04 1.1914606156066335e-09 0.0000000000000000e+00  4.1705167716326046e-04 1.1914361893990491e-09 0.0000000000000000e+00  4.1705167715232910e-04 1.1914226547612289e-09 0.0000000000000000e+00  4.1705167714959431e-04 1.1914034411808494e-09 0.0000000000000000e+00  4.1705167714387796e-04 1.1914148707317315e-09 0.0000000000000000e+00  4.1705167714894704e-04 1.1914342864073960e-09 0.0000000000000000e+00  4.1705167715343954e-04 1.1914505779545004e-09 0.0000000000000000e+00  4.1705167714755948e-04 1.1914340250062522e-09 0.0000000000000000e+00  4.1705167721666327e-04 1.1915232356546693e-09 0.0000000000000000e+00  4.1705167721781719e-04 1.1914775332804925e-09 0.0000000000000000e+00  4.1705167714441811e-04 1.1914164451017062e-09 0.0000000000000000e+00  4.1705167715390531e-04 1.1914296239043734e-09 0.0000000000000000e+00  4.1705167714357243e-04 1.1914252693147678e-09 0.0000000000000000e+00  4.1705167715670060e-04 1.1914330557295100e-09 0.0000000000000000e+00  4.1705167714927176e-04 1.1914327799084773e-09 0.0000000000000000e+00  4.1705167713724308e-04 1.1914339156102530e-09 0.0000000000000000e+00  4.1705167714971357e-04 -1.6212470230760423e-09 0.0000000000000000e+00  7.5928202747556253e-04 4.6922677830914250e-10 0.0000000000000000e+00  7.5928202748571229e-04 4.6923027768007441e-10 0.0000000000000000e+00  7.5928202746974275e-04 4.6923472225846030e-10 0.0000000000000000e+00  7.5928202747623614e-04 4.6923505846955399e-10 0.0000000000000000e+00  7.5928202747331801e-04 4.6923608922055937e-10 0.0000000000000000e+00  7.5928202748843168e-04 4.6924330935650682e-10 0.0000000000000000e+00  7.5928202747273829e-04 4.6921132495873763e-10 0.0000000000000000e+00  7.5928202748534669e-04 4.6920370507744918e-10 0.0000000000000000e+00  7.5928202746538892e-04 4.6921114064436831e-10 0.0000000000000000e+00  7.5928202747107306e-04 4.6921318740122953e-10 0.0000000000000000e+00  7.5928202746815623e-04 4.6923234720518125e-10 0.0000000000000000e+00  7.5928202740816885e-04 4.6912903455594707e-10 0.0000000000000000e+00  7.5928202742921494e-04 4.6921674228331267e-10 0.0000000000000000e+00  7.5928202746151387e-04 4.6922682796560200e-10 0.0000000000000000e+00  7.5928202747461363e-04 4.6922526834077688e-10 0.0000000000000000e+00  7.5928202749951982e-04 4.6920290352678307e-10 0.0000000000000000e+00  7.5928202745199891e-04 4.6921157161473187e-10 0.0000000000000000e+00  7.5928202746746072e-04 4.6921931563716907e-10 0.0000000000000000e+00  7.5928202747372882e-04 4.6924092335278583e-10 0.0000000000000000e+00  7.5928202749601817e-04 4.6922173611851914e-10 0.0000000000000000e+00  7.5928202747422560e-04 4.6921930783091342e-10 0.0000000000000000e+00  7.5928202746805399e-04 4.6920500265060922e-10 0.0000000000000000e+00  7.5928202754446726e-04 4.6934298808531949e-10 0.0000000000000000e+00  7.5928202752053209e-04 4.6921805319215942e-10 0.0000000000000000e+00  7.5928202746812349e-04 4.6924017341014312e-10 0.0000000000000000e+00  7.5928202748905813e-04 4.6921677405043632e-10 0.0000000000000000e+00  7.5928202747522859e-04 4.6922561159918469e-10 0.0000000000000000e+00  7.5928202747571529e-04 4.6923619699025532e-10 0.0000000000000000e+00  7.5928202747355491e-04 4.6921224262745642e-10 0.0000000000000000e+00  7.5928202747667253e-04 4.6922452718017177e-10 0.0000000000000000e+00  7.5928202747556296e-04 -2.4338363420668677e-09 0.0000000000000000e+00  9.7022568642888174e-04 -1.8748511662440570e-10 0.0000000000000000e+00  9.7022568643417633e-04 -1.8749566504418225e-10 0.0000000000000000e+00  9.7022568643949088e-04 -1.8749318981062246e-10 0.0000000000000000e+00  9.7022568642859616e-04 -1.8751097506305991e-10 0.0000000000000000e+00  9.7022568641438834e-04 -1.8750866983240078e-10 0.0000000000000000e+00  9.7022568642394949e-04 -1.8749255685339417e-10 0.0000000000000000e+00  9.7022568642484547e-04 -1.8748868473375535e-10 0.0000000000000000e+00  9.7022568643626754e-04 -1.8748858672187896e-10 0.0000000000000000e+00  9.7022568642956999e-04 -1.8749366599221662e-10 0.0000000000000000e+00  9.7022568644109311e-04 -1.8747655598089219e-10 0.0000000000000000e+00  9.7022568643760003e-04 -1.8751311961495709e-10 0.0000000000000000e+00  9.7022568636953295e-04 -1.8747085134274144e-10 0.0000000000000000e+00  9.7022568647933552e-04 -1.8748447304199611e-10 0.0000000000000000e+00  9.7022568642229847e-04 -1.8748374294025316e-10 0.0000000000000000e+00  9.7022568642479387e-04 -1.8747649157928314e-10 0.0000000000000000e+00  9.7022568645331294e-04 -1.8748138219844279e-10 0.0000000000000000e+00  9.7022568642319922e-04 -1.8750448936566411e-10 0.0000000000000000e+00  9.7022568641501696e-04 -1.8747976847192926e-10 0.0000000000000000e+00  9.7022568645353043e-04 -1.8750272298348469e-10 0.0000000000000000e+00  9.7022568642426412e-04 -1.8750668899503165e-10 0.0000000000000000e+00  9.7022568644400766e-04 -1.8749283484283119e-10 0.0000000000000000e+00  9.7022568642390178e-04 -1.8748424470901859e-10 0.0000000000000000e+00  9.7022568646573898e-04 -1.8751243548338625e-10 0.0000000000000000e+00  9.7022568641035012e-04 -1.8743621346857531e-10 0.0000000000000000e+00  9.7022568644560404e-04 -1.8746825749746399e-10 0.0000000000000000e+00  9.7022568643042326e-04 -1.8748418442737780e-10 0.0000000000000000e+00  9.7022568644480824e-04 -1.8749561755612709e-10 0.0000000000000000e+00  9.7022568641225984e-04 -1.8750244282564332e-10 0.0000000000000000e+00  9.7022568643783075e-04 -1.8748448670294349e-10 0.0000000000000000e+00  9.7022568643420279e-04 -1.8747071538378901e-10 0.0000000000000000e+00  9.7022568642888196e-04 -2.8051460727617745e-09 0.0000000000000000e+00  1.0134086557220384e-03 -4.1325738360867281e-10 0.0000000000000000e+00  1.0134086557359607e-03 -4.1328586462396205e-10 0.0000000000000000e+00  1.0134086557072198e-03 -4.1330374290094590e-10 0.0000000000000000e+00  1.0134086557219524e-03 -4.1326161405712963e-10 0.0000000000000000e+00  1.0134086557470733e-03 -4.1326355532111947e-10 0.0000000000000000e+00  1.0134086557171897e-03 -4.1327562162393749e-10 0.0000000000000000e+00  1.0134086557268482e-03 -4.1327040194941850e-10 0.0000000000000000e+00  1.0134086557299867e-03 -4.1325080260990604e-10 0.0000000000000000e+00  1.0134086557437917e-03 -4.1325357155383435e-10 0.0000000000000000e+00  1.0134086557437188e-03 -4.1326685378938882e-10 0.0000000000000000e+00  1.0134086557173831e-03 -4.1328561894374977e-10 0.0000000000000000e+00  1.0134086557279042e-03 -4.1327371136812979e-10 0.0000000000000000e+00  1.0134086557257863e-03 -4.1329407713015798e-10 0.0000000000000000e+00  1.0134086557346757e-03 -4.1327541443290233e-10 0.0000000000000000e+00  1.0134086557274046e-03 -4.1327911611595963e-10 0.0000000000000000e+00  1.0134086557302886e-03 -4.1328674423718459e-10 0.0000000000000000e+00  1.0134086557275091e-03 -4.1328298671771541e-10 0.0000000000000000e+00  1.0134086557238471e-03 -4.1327768334278869e-10 0.0000000000000000e+00  1.0134086557536028e-03 -4.1326393555082136e-10 0.0000000000000000e+00  1.0134086557256959e-03 -4.1325217716142032e-10 0.0000000000000000e+00  1.0134086557313667e-03 -4.1326157849529838e-10 0.0000000000000000e+00  1.0134086557316482e-03 -4.1327751344830826e-10 0.0000000000000000e+00  1.0134086557297421e-03 -4.1328243800299591e-10 0.0000000000000000e+00  1.0134086557213756e-03 -4.1329559718160380e-10 0.0000000000000000e+00  1.0134086557319288e-03 -4.1327636712135130e-10 0.0000000000000000e+00  1.0134086557116416e-03 -4.1327320764780046e-10 0.0000000000000000e+00  1.0134086557412408e-03 -4.1328661077189716e-10 0.0000000000000000e+00  1.0134086557260025e-03 -4.1327815301916981e-10 0.0000000000000000e+00  1.0134086557234395e-03 -4.1326228506985418e-10 0.0000000000000000e+00  1.0134086557366515e-03 -4.1329112712446686e-10 0.0000000000000000e+00  1.0134086557220391e-03 -2.7854620883277572e-09 0.0000000000000000e+00  8.8136416821033134e-04 -2.4141758817736170e-10 0.0000000000000000e+00  8.8136416822109226e-04 -2.4142196033104246e-10 0.0000000000000000e+00  8.8136416820319057e-04 -2.4144281149038327e-10 0.0000000000000000e+00  8.8136416819891827e-04 -2.4142790078316573e-10 0.0000000000000000e+00  8.8136416821920814e-04 -2.4143659228988146e-10 0.0000000000000000e+00  8.8136416821315037e-04 -2.4142237839940017e-10 0.0000000000000000e+00  8.8136416819908046e-04 -2.4141931021567226e-10 0.0000000000000000e+00  8.8136416823078774e-04 -2.4140380471514289e-10 0.0000000000000000e+00  8.8136416820889987e-04 -2.4139733116081141e-10 0.0000000000000000e+00  8.8136416823198058e-04 -2.4141793295365255e-10 0.0000000000000000e+00  8.8136416821595152e-04 -2.4142674133736247e-10 0.0000000000000000e+00  8.8136416821701404e-04 -2.4140365780574852e-10 0.0000000000000000e+00  8.8136416821834272e-04 -2.4142546317142133e-10 0.0000000000000000e+00  8.8136416820998797e-04 -2.4140695941820417e-10 0.0000000000000000e+00  8.8136416821163693e-04 -2.4143290155726610e-10 0.0000000000000000e+00  8.8136416821414578e-04 -2.4142253962026322e-10 0.0000000000000000e+00  8.8136416822203920e-04 -2.4141817960964679e-10 0.0000000000000000e+00  8.8136416820367239e-04 -2.4141775265083126e-10 0.0000000000000000e+00  8.8136416821716225e-04 -2.4144830817855734e-10 0.0000000000000000e+00  8.8136416820905458e-04 -2.4144778526784955e-10 0.0000000000000000e+00  8.8136416819513982e-04 -2.4141940551704322e-10 0.0000000000000000e+00  8.8136416822931832e-04 -2.4141032911855625e-10 0.0000000000000000e+00  8.8136416821505532e-04 -2.4141620202488417e-10 0.0000000000000000e+00  8.8136416820844016e-04 -2.4144496048750935e-10 0.0000000000000000e+00  8.8136416819387217e-04 -2.4143022195159680e-10 0.0000000000000000e+00  8.8136416821023354e-04 -2.4142079849999443e-10 0.0000000000000000e+00  8.8136416822632505e-04 -2.4142421102633232e-10 0.0000000000000000e+00  8.8136416821270390e-04 -2.4142428963098983e-10 0.0000000000000000e+00  8.8136416821845255e-04 -2.4140007093970128e-10 0.0000000000000000e+00  8.8136416821780518e-04 -2.4142953966316966e-10 0.0000000000000000e+00  8.8136416821033177e-04 -2.4087755578241296e-09 0.0000000000000000e+00  5.9692378512601104e-04 -4.9682966074549029e-11 0.0000000000000000e+00  5.9692378517606703e-04 -4.9687978503822755e-11 0.0000000000000000e+00  5.9692378513303700e-04 -4.9700954072792736e-11 0.0000000000000000e+00  5.9692378515182807e-04 -4.9701210811867180e-11 0.0000000000000000e+00  5.9692378513990152e-04 -4.9669582411881325e-11 0.0000000000000000e+00  5.9692378513808700e-04 -4.9686341033281650e-11 0.0000000000000000e+00  5.9692378514910509e-04 -4.9667361748991640e-11 0.0000000000000000e+00  5.9692378514636184e-04 -4.9692211879625442e-11 0.0000000000000000e+00  5.9692378515643777e-04 -4.9694355997841749e-11 0.0000000000000000e+00  5.9692378514426359e-04 -4.9681388560388062e-11 0.0000000000000000e+00  5.9692378514434230e-04 -4.9686042064532587e-11 0.0000000000000000e+00  5.9692378515144111e-04 -4.9680098576643239e-11 0.0000000000000000e+00  5.9692378513930087e-04 -4.9684047891476735e-11 0.0000000000000000e+00  5.9692378514516564e-04 -4.9695216800156594e-11 0.0000000000000000e+00  5.9692378514186414e-04 -4.9687180747864240e-11 0.0000000000000000e+00  5.9692378513168543e-04 -4.9693392142110410e-11 0.0000000000000000e+00  5.9692378514402756e-04 -4.9696805752650480e-11 0.0000000000000000e+00  5.9692378514692324e-04 -4.9682970845038588e-11 0.0000000000000000e+00  5.9692378515306612e-04 -4.9670147931734493e-11 0.0000000000000000e+00  5.9692378513136711e-04 -4.9688167859732180e-11 0.0000000000000000e+00  5.9692378515613137e-04 -4.9693187065269484e-11 0.0000000000000000e+00  5.9692378514152673e-04 -4.9698648679503271e-11 0.0000000000000000e+00  5.9692378514251976e-04 -4.9700519741402438e-11 0.0000000000000000e+00  5.9692378513955349e-04 -4.9692475611803899e-11 0.0000000000000000e+00  5.9692378513173769e-04 -4.9690954692996336e-11 0.0000000000000000e+00  5.9692378514115052e-04 -4.9705676749035865e-11 0.0000000000000000e+00  5.9692378513461083e-04 -4.9700473988070759e-11 0.0000000000000000e+00  5.9692378514728363e-04 -4.9685242411220271e-11 0.0000000000000000e+00  5.9692378515261205e-04 -4.9678987432046767e-11 0.0000000000000000e+00  5.9692378513317274e-04 -4.9691395692229995e-11 0.0000000000000000e+00  5.9692378512601115e-04 -1.6686904862154604e-09 0.0000000000000000e+00  2.0926969753184675e-04 -2.6471752402417413e-10 0.0000000000000000e+00  2.0926969752069433e-04 -2.6469654552528817e-10 0.0000000000000000e+00  2.0926969753817557e-04 -2.6469197929941853e-10 0.0000000000000000e+00  2.0926969754178938e-04 -2.6469617334578741e-10 0.0000000000000000e+00  2.0926969753179816e-04 -2.6473455940173151e-10 0.0000000000000000e+00  2.0926969751604426e-04 -2.6473639332970627e-10 0.0000000000000000e+00  2.0926969752392880e-04 -2.6472644111270437e-10 0.0000000000000000e+00  2.0926969752646507e-04 -2.6469799773278305e-10 0.0000000000000000e+00  2.0926969752904959e-04 -2.6473178322075370e-10 0.0000000000000000e+00  2.0926969751972367e-04 -2.6471308010986207e-10 0.0000000000000000e+00  2.0926969752149726e-04 -2.6472190662685333e-10 0.0000000000000000e+00  2.0926969751839454e-04 -2.6469907976655119e-10 0.0000000000000000e+00  2.0926969754912203e-04 -2.6470143115711782e-10 0.0000000000000000e+00  2.0926969753562853e-04 -2.6470593435018366e-10 0.0000000000000000e+00  2.0926969751963758e-04 -2.6473401025333115e-10 0.0000000000000000e+00  2.0926969752303699e-04 -2.6471573200061334e-10 0.0000000000000000e+00  2.0926969753764878e-04 -2.6471627200105787e-10 0.0000000000000000e+00  2.0926969753726630e-04 -2.6469546837042980e-10 0.0000000000000000e+00  2.0926969753832576e-04 -2.6471416604675804e-10 0.0000000000000000e+00  2.0926969754603527e-04 -2.6472950486475591e-10 0.0000000000000000e+00  2.0926969751477922e-04 -2.6473577647288023e-10 0.0000000000000000e+00  2.0926969752577346e-04 -2.6471681483398058e-10 0.0000000000000000e+00  2.0926969752479345e-04 -2.6471697548563749e-10 0.0000000000000000e+00  2.0926969750929050e-04 -2.6468970172946731e-10 0.0000000000000000e+00  2.0926969755204943e-04 -2.6472434207019339e-10 0.0000000000000000e+00  2.0926969751402797e-04 -2.6470512792060776e-10 0.0000000000000000e+00  2.0926969754577970e-04 -2.6470450626618711e-10 0.0000000000000000e+00  2.0926969751005448e-04 -2.6472898157457736e-10 0.0000000000000000e+00  2.0926969752837598e-04 -2.6472857570349409e-10 0.0000000000000000e+00  2.0926969752478451e-04 -2.6472484999180614e-10 0.0000000000000000e+00  2.0926969753184678e-04 -5.6834647670863577e-10 0.0000000000000000e+00  -2.1456923152524907e-04 -1.0284009580876184e-09 0.0000000000000000e+00  -2.1456923152542292e-04 -1.0284005905972921e-09 0.0000000000000000e+00  -2.1456923152495861e-04 -1.0284390887732933e-09 0.0000000000000000e+00  -2.1456923153354224e-04 -1.0284312328611919e-09 0.0000000000000000e+00  -2.1456923151734567e-04 -1.0284050266646909e-09 0.0000000000000000e+00  -2.1456923153510111e-04 -1.0284202986822824e-09 0.0000000000000000e+00  -2.1456923153806255e-04 -1.0284089835689396e-09 0.0000000000000000e+00  -2.1456923151951511e-04 -1.0284175860626570e-09 0.0000000000000000e+00  -2.1456923152380101e-04 -1.0284341737595848e-09 0.0000000000000000e+00  -2.1456923154185336e-04 -1.0284156742347561e-09 0.0000000000000000e+00  -2.1456923151318732e-04 -1.0284167996908213e-09 0.0000000000000000e+00  -2.1456923153335793e-04 -1.0284363692147740e-09 0.0000000000000000e+00  -2.1456923151188801e-04 -1.0284129647051068e-09 0.0000000000000000e+00  -2.1456923151720299e-04 -1.0284291778643942e-09 0.0000000000000000e+00  -2.1456923154663675e-04 -1.0284297999253907e-09 0.0000000000000000e+00  -2.1456923152718210e-04 -1.0284226931427803e-09 0.0000000000000000e+00  -2.1456923152109522e-04 -1.0284202558020865e-09 0.0000000000000000e+00  -2.1456923152516000e-04 -1.0284312390411443e-09 0.0000000000000000e+00  -2.1456923150348756e-04 -1.0284229410998172e-09 0.0000000000000000e+00  -2.1456923153247002e-04 -1.0284152001673562e-09 0.0000000000000000e+00  -2.1456923153453749e-04 -1.0284517293780021e-09 0.0000000000000000e+00  -2.1456923154108607e-04 -1.0284152704236570e-09 0.0000000000000000e+00  -2.1456923151331076e-04 -1.0284158247220176e-09 0.0000000000000000e+00  -2.1456923153972377e-04 -1.0284172028513991e-09 0.0000000000000000e+00  -2.1456923152022705e-04 -1.0284127697655562e-09 0.0000000000000000e+00  -2.1456923150881002e-04 -1.0284409113713554e-09 0.0000000000000000e+00  -2.1456923154180657e-04 -1.0284401418046533e-09 0.0000000000000000e+00  -2.1456923152766158e-04 -1.0284246125058863e-09 0.0000000000000000e+00  -2.1456923151595068e-04 -1.0284244274325754e-09 0.0000000000000000e+00  -2.1456923151916800e-04 -1.0284155889080451e-09 0.0000000000000000e+00  -2.1456923152524923e-04 7.9894222312234832e-10 0.0000000000000000e+00  -6.0130733207620262e-04 -2.0552963599703572e-09 0.0000000000000000e+00  -6.0130733206448348e-04 -2.0552686940582612e-09 0.0000000000000000e+00  -