<?xml version="1.0"?>
<VTKFile type="UnstructuredGrid"  version="0.1"  >
<UnstructuredGrid>
<Piece  NumberOfPoints="961" NumberOfCells="1800">
<Points>
<DataArray  type="Float64"  NumberOfComponents="3"  format="ascii">0 0 0  0.03333333333333333 0 0  0.06666666666666667 0 0  0.1 0 0  0.1333333333333333 0 0  0.1666666666666667 0 0  0.2 0 0  0.2333333333333333 0 0  0.2666666666666667 0 0  0.3 0 0  0.3333333333333333 0 0  0.3666666666666666 0 0  0.4 0 0  0.4333333333333333 0 0  0.4666666666666667 0 0  0.5 0 0  0.5333333333333333 0 0  0.5666666666666667 0 0  0.6 0 0  0.6333333333333333 0 0  0.6666666666666666 0 0  0.7 0 0  0.7333333333333333 0 0  0.7666666666666667 0 0  0.8 0 0  0.8333333333333334 0 0  0.8666666666666667 0 0  0.9 0 0  0.9333333333333333 0 0  0.9666666666666667 0 0  1 0 0  0 0.03333333333333333 0  0.03333333333333333 0.03333333333333333 0  0.06666666666666667 0.03333333333333333 0  0.1 0.03333333333333333 0  0.1333333333333333 0.03333333333333333 0  0.1666666666666667 0.03333333333333333 0  0.2 0.03333333333333333 0  0.2333333333333333 0.03333333333333333 0  0.2666666666666667 0.03333333333333333 0  0.3 0.03333333333333333 0  0.3333333333333333 0.03333333333333333 0  0.3666666666666666 0.03333333333333333 0  0.4 0.03333333333333333 0  0.4333333333333333 0.03333333333333333 0  0.4666666666666667 0.03333333333333333 0  0.5 0.03333333333333333 0  0.5333333333333333 0.03333333333333333 0  0.5666666666666667 0.03333333333333333 0  0.6 0.03333333333333333 0  0.6333333333333333 0.03333333333333333 0  0.6666666666666666 0.03333333333333333 0  0.7 0.03333333333333333 0  0.7333333333333333 0.03333333333333333 0  0.7666666666666667 0.03333333333333333 0  0.8 0.03333333333333333 0  0.8333333333333334 0.03333333333333333 0  0.8666666666666667 0.03333333333333333 0  0.9 0.03333333333333333 0  0.9333333333333333 0.03333333333333333 0  0.9666666666666667 0.03333333333333333 0  1 0.03333333333333333 0  0 0.06666666666666667 0  0.03333333333333333 0.06666666666666667 0  0.06666666666666667 0.06666666666666667 0  0.1 0.06666666666666667 0  0.1333333333333333 0.06666666666666667 0  0.1666666666666667 0.06666666666666667 0  0.2 0.06666666666666667 0  0.2333333333333333 0.06666666666666667 0  0.2666666666666667 0.06666666666666667 0  0.3 0.06666666666666667 0  0.3333333333333333 0.06666666666666667 0  0.3666666666666666 0.06666666666666667 0  0.4 0.06666666666666667 0  0.4333333333333333 0.06666666666666667 0  0.4666666666666667 0.06666666666666667 0  0.5 0.06666666666666667 0  0.5333333333333333 0.06666666666666667 0  0.5666666666666667 0.06666666666666667 0  0.6 0.06666666666666667 0  0.6333333333333333 0.06666666666666667 0  0.6666666666666666 0.06666666666666667 0  0.7 0.06666666666666667 0  0.7333333333333333 0.06666666666666667 0  0.7666666666666667 0.06666666666666667 0  0.8 0.06666666666666667 0  0.8333333333333334 0.06666666666666667 0  0.8666666666666667 0.06666666666666667 0  0.9 0.06666666666666667 0  0.9333333333333333 0.06666666666666667 0  0.9666666666666667 0.06666666666666667 0  1 0.06666666666666667 0  0 0.1 0  0.03333333333333333 0.1 0  0.06666666666666667 0.1 0  0.1 0.1 0  0.1333333333333333 0.1 0  0.1666666666666667 0.1 0  0.2 0.1 0  0.2333333333333333 0.1 0  0.2666666666666667 0.1 0  0.3 0.1 0  0.3333333333333333 0.1 0  0.3666666666666666 0.1 0  0.4 0.1 0  0.4333333333333333 0.1 0  0.4666666666666667 0.1 0  0.5 0.1 0  0.5333333333333333 0.1 0  0.5666666666666667 0.1 0  0.6 0.1 0  0.6333333333333333 0.1 0  0.6666666666666666 0.1 0  0.7 0.1 0  0.7333333333333333 0.1 0  0.7666666666666667 0.1 0  0.8 0.1 0  0.8333333333333334 0.1 0  0.8666666666666667 0.1 0  0.9 0.1 0  0.9333333333333333 0.1 0  0.9666666666666667 0.1 0  1 0.1 0  0 0.1333333333333333 0  0.03333333333333333 0.1333333333333333 0  0.06666666666666667 0.1333333333333333 0  0.1 0.1333333333333333 0  0.1333333333333333 0.1333333333333333 0  0.1666666666666667 0.1333333333333333 0  0.2 0.1333333333333333 0  0.2333333333333333 0.1333333333333333 0  0.2666666666666667 0.1333333333333333 0  0.3 0.1333333333333333 0  0.3333333333333333 0.1333333333333333 0  0.3666666666666666 0.1333333333333333 0  0.4 0.1333333333333333 0  0.4333333333333333 0.1333333333333333 0  0.4666666666666667 0.1333333333333333 0  0.5 0.1333333333333333 0  0.5333333333333333 0.1333333333333333 0  0.5666666666666667 0.1333333333333333 0  0.6 0.1333333333333333 0  0.6333333333333333 0.1333333333333333 0  0.6666666666666666 0.1333333333333333 0  0.7 0.1333333333333333 0  0.7333333333333333 0.1333333333333333 0  0.7666666666666667 0.1333333333333333 0  0.8 0.1333333333333333 0  0.8333333333333334 0.1333333333333333 0  0.8666666666666667 0.1333333333333333 0  0.9 0.1333333333333333 0  0.9333333333333333 0.1333333333333333 0  0.9666666666666667 0.1333333333333333 0  1 0.1333333333333333 0  0 0.1666666666666667 0  0.03333333333333333 0.1666666666666667 0  0.06666666666666667 0.1666666666666667 0  0.1 0.1666666666666667 0  0.1333333333333333 0.1666666666666667 0  0.1666666666666667 0.1666666666666667 0  0.2 0.1666666666666667 0  0.2333333333333333 0.1666666666666667 0  0.2666666666666667 0.1666666666666667 0  0.3 0.1666666666666667 0  0.3333333333333333 0.1666666666666667 0  0.3666666666666666 0.1666666666666667 0  0.4 0.1666666666666667 0  0.4333333333333333 0.1666666666666667 0  0.4666666666666667 0.1666666666666667 0  0.5 0.1666666666666667 0  0.5333333333333333 0.1666666666666667 0  0.5666666666666667 0.1666666666666667 0  0.6 0.1666666666666667 0  0.6333333333333333 0.1666666666666667 0  0.6666666666666666 0.1666666666666667 0  0.7 0.1666666666666667 0  0.7333333333333333 0.1666666666666667 0  0.7666666666666667 0.1666666666666667 0  0.8 0.1666666666666667 0  0.8333333333333334 0.1666666666666667 0  0.8666666666666667 0.1666666666666667 0  0.9 0.1666666666666667 0  0.9333333333333333 0.1666666666666667 0  0.9666666666666667 0.1666666666666667 0  1 0.1666666666666667 0  0 0.2 0  0.03333333333333333 0.2 0  0.06666666666666667 0.2 0  0.1 0.2 0  0.1333333333333333 0.2 0  0.1666666666666667 0.2 0  0.2 0.2 0  0.2333333333333333 0.2 0  0.2666666666666667 0.2 0  0.3 0.2 0  0.3333333333333333 0.2 0  0.3666666666666666 0.2 0  0.4 0.2 0  0.4333333333333333 0.2 0  0.4666666666666667 0.2 0  0.5 0.2 0  0.5333333333333333 0.2 0  0.5666666666666667 0.2 0  0.6 0.2 0  0.6333333333333333 0.2 0  0.6666666666666666 0.2 0  0.7 0.2 0  0.7333333333333333 0.2 0  0.7666666666666667 0.2 0  0.8 0.2 0  0.8333333333333334 0.2 0  0.8666666666666667 0.2 0  0.9 0.2 0  0.9333333333333333 0.2 0  0.9666666666666667 0.2 0  1 0.2 0  0 0.2333333333333333 0  0.03333333333333333 0.2333333333333333 0  0.06666666666666667 0.2333333333333333 0  0.1 0.2333333333333333 0  0.1333333333333333 0.2333333333333333 0  0.1666666666666667 0.2333333333333333 0  0.2 0.2333333333333333 0  0.2333333333333333 0.2333333333333333 0  0.2666666666666667 0.2333333333333333 0  0.3 0.2333333333333333 0  0.3333333333333333 0.2333333333333333 0  0.3666666666666666 0.2333333333333333 0  0.4 0.2333333333333333 0  0.4333333333333333 0.2333333333333333 0  0.4666666666666667 0.2333333333333333 0  0.5 0.2333333333333333 0  0.5333333333333333 0.2333333333333333 0  0.5666666666666667 0.2333333333333333 0  0.6 0.2333333333333333 0  0.6333333333333333 0.2333333333333333 0  0.6666666666666666 0.2333333333333333 0  0.7 0.2333333333333333 0  0.7333333333333333 0.2333333333333333 0  0.7666666666666667 0.2333333333333333 0  0.8 0.2333333333333333 0  0.8333333333333334 0.2333333333333333 0  0.8666666666666667 0.2333333333333333 0  0.9 0.2333333333333333 0  0.9333333333333333 0.2333333333333333 0  0.9666666666666667 0.2333333333333333 0  1 0.2333333333333333 0  0 0.2666666666666667 0  0.03333333333333333 0.2666666666666667 0  0.06666666666666667 0.2666666666666667 0  0.1 0.2666666666666667 0  0.1333333333333333 0.2666666666666667 0  0.1666666666666667 0.2666666666666667 0  0.2 0.2666666666666667 0  0.2333333333333333 0.2666666666666667 0  0.2666666666666667 0.2666666666666667 0  0.3 0.2666666666666667 0  0.3333333333333333 0.2666666666666667 0  0.3666666666666666 0.2666666666666667 0  0.4 0.2666666666666667 0  0.4333333333333333 0.2666666666666667 0  0.4666666666666667 0.2666666666666667 0  0.5 0.2666666666666667 0  0.5333333333333333 0.2666666666666667 0  0.5666666666666667 0.2666666666666667 0  0.6 0.2666666666666667 0  0.6333333333333333 0.2666666666666667 0  0.6666666666666666 0.2666666666666667 0  0.7 0.2666666666666667 0  0.7333333333333333 0.2666666666666667 0  0.7666666666666667 0.2666666666666667 0  0.8 0.2666666666666667 0  0.8333333333333334 0.2666666666666667 0  0.8666666666666667 0.2666666666666667 0  0.9 0.2666666666666667 0  0.9333333333333333 0.2666666666666667 0  0.9666666666666667 0.2666666666666667 0  1 0.2666666666666667 0  0 0.3 0  0.03333333333333333 0.3 0  0.06666666666666667 0.3 0  0.1 0.3 0  0.1333333333333333 0.3 0  0.1666666666666667 0.3 0  0.2 0.3 0  0.2333333333333333 0.3 0  0.2666666666666667 0.3 0  0.3 0.3 0  0.3333333333333333 0.3 0  0.3666666666666666 0.3 0  0.4 0.3 0  0.4333333333333333 0.3 0  0.4666666666666667 0.3 0  0.5 0.3 0  0.5333333333333333 0.3 0  0.5666666666666667 0.3 0  0.6 0.3 0  0.6333333333333333 0.3 0  0.6666666666666666 0.3 0  0.7 0.3 0  0.7333333333333333 0.3 0  0.7666666666666667 0.3 0  0.8 0.3 0  0.8333333333333334 0.3 0  0.8666666666666667 0.3 0  0.9 0.3 0  0.9333333333333333 0.3 0  0.9666666666666667 0.3 0  1 0.3 0  0 0.3333333333333333 0  0.03333333333333333 0.3333333333333333 0  0.06666666666666667 0.3333333333333333 0  0.1 0.3333333333333333 0  0.1333333333333333 0.3333333333333333 0  0.1666666666666667 0.3333333333333333 0  0.2 0.3333333333333333 0  0.2333333333333333 0.3333333333333333 0  0.2666666666666667 0.3333333333333333 0  0.3 0.3333333333333333 0  0.3333333333333333 0.3333333333333333 0  0.3666666666666666 0.3333333333333333 0  0.4 0.3333333333333333 0  0.4333333333333333 0.3333333333333333 0  0.4666666666666667 0.3333333333333333 0  0.5 0.3333333333333333 0  0.5333333333333333 0.33333333333333
[...]
<PointData  Vectors="u_f"> 
<DataArray  type="Float64"  Name="u_f"  NumberOfComponents="3" format="ascii">2.7080942924473058e-06 -3.4168016722164671e-09 0.0000000000000000e+00  2.7080942870700425e-06 -3.4167874931830856e-09 0.0000000000000000e+00  2.7080942935566073e-06 -3.4167871394079168e-09 0.0000000000000000e+00  2.7080942921109863e-06 -3.4168000712835392e-09 0.0000000000000000e+00  2.7080942841916484e-06 -3.4167875924960046e-09 0.0000000000000000e+00  2.7080942755002501e-06 -3.4167683937691949e-09 0.0000000000000000e+00  2.7080943216744148e-06 -3.4167611173089446e-09 0.0000000000000000e+00  2.7080942790214677e-06 -3.4167906012654535e-09 0.0000000000000000e+00  2.7080942888803349e-06 -3.4167772757160222e-09 0.0000000000000000e+00  2.7080942914768365e-06 -3.4167769120204035e-09 0.0000000000000000e+00  2.7080943072283425e-06 -3.4167322788321991e-09 0.0000000000000000e+00  2.7080942594606174e-06 -3.4168843877891396e-09 0.0000000000000000e+00  2.7080942349018118e-06 -3.4168017523390076e-09 0.0000000000000000e+00  2.7080942780852591e-06 -3.4167737926623330e-09 0.0000000000000000e+00  2.7080943118530068e-06 -3.4167887027190293e-09 0.0000000000000000e+00  2.7080942813770595e-06 -3.4167752144308519e-09 0.0000000000000000e+00  2.7080943049907660e-06 -3.4167819435316354e-09 0.0000000000000000e+00  2.7080942928641273e-06 -3.4167906208353027e-09 0.0000000000000000e+00  2.7080942830997484e-06 -3.4167856040150102e-09 0.0000000000000000e+00  2.7080942966030527e-06 -3.4167892988133837e-09 0.0000000000000000e+00  2.7080942990396345e-06 -3.4167838270618596e-09 0.0000000000000000e+00  2.7080942771600552e-06 -3.4168038279356466e-09 0.0000000000000000e+00  2.7080943103822866e-06 -3.4167050891016973e-09 0.0000000000000000e+00  2.7080943434669869e-06 -3.4167747032295276e-09 0.0000000000000000e+00  2.7080943001462254e-06 -3.4167706390434739e-09 0.0000000000000000e+00  2.7080943003503807e-06 -3.4167896397949669e-09 0.0000000000000000e+00  2.7080942940853185e-06 -3.4167832681014296e-09 0.0000000000000000e+00  2.7080943003945620e-06 -3.4167912197485828e-09 0.0000000000000000e+00  2.7080942815521040e-06 -3.4167809800011648e-09 0.0000000000000000e+00  2.7080942898045088e-06 -3.4167976350270475e-09 0.0000000000000000e+00  2.7080942924473600e-06 7.5107240119509278e-10 0.0000000000000000e+00  4.1704797162030942e-04 -7.0649956452608839e-09 0.0000000000000000e+00  4.1704797162496075e-04 -7.0649830344717349e-09 0.0000000000000000e+00  4.1704797161805536e-04 -7.0649887785748447e-09 0.0000000000000000e+00  4.1704797163193098e-04 -7.0649846771464464e-09 0.0000000000000000e+00  4.1704797164685416e-04 -7.0649831016922696e-09 0.0000000000000000e+00  4.1704797162948524e-04 -7.0650035210138851e-09 0.0000000000000000e+00  4.1704797162391179e-04 -7.0649968414611408e-09 0.0000000000000000e+00  4.1704797162658521e-04 -7.0650005044381806e-09 0.0000000000000000e+00  4.1704797163710512e-04 -7.0650017124562411e-09 0.0000000000000000e+00  4.1704797162258873e-04 -7.0650016836164634e-09 0.0000000000000000e+00  4.1704797162144262e-04 -7.0649882531704719e-09 0.0000000000000000e+00  4.1704797158630960e-04 -7.0650639498893303e-09 0.0000000000000000e+00  4.1704797157113651e-04 -7.0650250707246856e-09 0.0000000000000000e+00  4.1704797162943092e-04 -7.0650050361864211e-09 0.0000000000000000e+00  4.1704797161437807e-04 -7.0649947622866346e-09 0.0000000000000000e+00  4.1704797163470307e-04 -7.0649919596240188e-09 0.0000000000000000e+00  4.1704797162683892e-04 -7.0650104518846929e-09 0.0000000000000000e+00  4.1704797162439979e-04 -7.0650015043978442e-09 0.0000000000000000e+00  4.1704797162513422e-04 -7.0649980821136868e-09 0.0000000000000000e+00  4.1704797162455407e-04 -7.0649938856007580e-09 0.0000000000000000e+00  4.1704797163220160e-04 -7.0649953236865196e-09 0.0000000000000000e+00  4.1704797163517632e-04 -7.0650016979279320e-09 0.0000000000000000e+00  4.1704797167022869e-04 -7.0649291436606504e-09 0.0000000000000000e+00  4.1704797167449806e-04 -7.0649815866281537e-09 0.0000000000000000e+00  4.1704797161440420e-04 -7.0650119763813676e-09 0.0000000000000000e+00  4.1704797162499946e-04 -7.0650098930868932e-09 0.0000000000000000e+00  4.1704797162531735e-04 -7.0650059748886621e-09 0.0000000000000000e+00  4.1704797163072394e-04 -7.0650011463942869e-09 0.0000000000000000e+00  4.1704797162266018e-04 -7.0649931461748763e-09 0.0000000000000000e+00  4.1704797163139126e-04 -7.0650063820065778e-09 0.0000000000000000e+00  4.1704797162030963e-04 3.7971202353264747e-09 0.0000000000000000e+00  7.5927641177226063e-04 -9.6848960922388608e-09 0.0000000000000000e+00  7.5927641179367883e-04 -9.6849201711764893e-09 0.0000000000000000e+00  7.5927641176608144e-04 -9.6849313397599085e-09 0.0000000000000000e+00  7.5927641177820997e-04 -9.6849329110941171e-09 0.0000000000000000e+00  7.5927641177146244e-04 -9.6849153638240565e-09 0.0000000000000000e+00  7.5927641178535215e-04 -9.6849145867763595e-09 0.0000000000000000e+00  7.5927641176875226e-04 -9.6849217660378850e-09 0.0000000000000000e+00  7.5927641178113266e-04 -9.6849188992989207e-09 0.0000000000000000e+00  7.5927641176875150e-04 -9.6849233881127553e-09 0.0000000000000000e+00  7.5927641177613253e-04 -9.6849260772594037e-09 0.0000000000000000e+00  7.5927641178683523e-04 -9.6849179487788761e-09 0.0000000000000000e+00  7.5927641171671088e-04 -9.6849917987761741e-09 0.0000000000000000e+00  7.5927641173905206e-04 -9.6849122488027947e-09 0.0000000000000000e+00  7.5927641176037279e-04 -9.6849266269499051e-09 0.0000000000000000e+00  7.5927641177541035e-04 -9.6848917989066780e-09 0.0000000000000000e+00  7.5927641178271353e-04 -9.6849058798739729e-09 0.0000000000000000e+00  7.5927641176340769e-04 -9.6849195412550271e-09 0.0000000000000000e+00  7.5927641177799237e-04 -9.6849102241636578e-09 0.0000000000000000e+00  7.5927641177970563e-04 -9.6849244738328108e-09 0.0000000000000000e+00  7.5927641179191570e-04 -9.6849324841353016e-09 0.0000000000000000e+00  7.5927641177467200e-04 -9.6849180925440842e-09 0.0000000000000000e+00  7.5927641177764402e-04 -9.6849326328878396e-09 0.0000000000000000e+00  7.5927641182271886e-04 -9.6848270790842947e-09 0.0000000000000000e+00  7.5927641182860629e-04 -9.6848893032901173e-09 0.0000000000000000e+00  7.5927641178636664e-04 -9.6849305951298564e-09 0.0000000000000000e+00  7.5927641175777059e-04 -9.6849185764235138e-09 0.0000000000000000e+00  7.5927641177050639e-04 -9.6849420450637394e-09 0.0000000000000000e+00  7.5927641176217701e-04 -9.6849227793332354e-09 0.0000000000000000e+00  7.5927641178547944e-04 -9.6849071200928380e-09 0.0000000000000000e+00  7.5927641177613373e-04 -9.6849079901650814e-09 0.0000000000000000e+00  7.5927641177226106e-04 6.2913324111656710e-09 0.0000000000000000e+00  9.7021911105262936e-04 -1.0527143808796227e-08 0.0000000000000000e+00  9.7021911106695341e-04 -1.0527125082239464e-08 0.0000000000000000e+00  9.7021911105479538e-04 -1.0527127669579528e-08 0.0000000000000000e+00  9.7021911107256480e-04 -1.0527139146726885e-08 0.0000000000000000e+00  9.7021911106519266e-04 -1.0527147011963126e-08 0.0000000000000000e+00  9.7021911105136713e-04 -1.0527152602760048e-08 0.0000000000000000e+00  9.7021911105860071e-04 -1.0527153217936361e-08 0.0000000000000000e+00  9.7021911105087404e-04 -1.0527169092607730e-08 0.0000000000000000e+00  9.7021911106515949e-04 -1.0527142918232563e-08 0.0000000000000000e+00  9.7021911104600207e-04 -1.0527157113041086e-08 0.0000000000000000e+00  9.7021911106051867e-04 -1.0527158419938384e-08 0.0000000000000000e+00  9.7021911102735683e-04 -1.0527141301036602e-08 0.0000000000000000e+00  9.7021911107364207e-04 -1.0527163737082679e-08 0.0000000000000000e+00  9.7021911105838192e-04 -1.0527173702418527e-08 0.0000000000000000e+00  9.7021911103491783e-04 -1.0527175151129470e-08 0.0000000000000000e+00  9.7021911105440940e-04 -1.0527158493013611e-08 0.0000000000000000e+00  9.7021911105502263e-04 -1.0527172750922700e-08 0.0000000000000000e+00  9.7021911103951984e-04 -1.0527160228821289e-08 0.0000000000000000e+00  9.7021911107667978e-04 -1.0527136046125513e-08 0.0000000000000000e+00  9.7021911106521456e-04 -1.0527145883308664e-08 0.0000000000000000e+00  9.7021911106338747e-04 -1.0527138978458708e-08 0.0000000000000000e+00  9.7021911105762168e-04 -1.0527117868825570e-08 0.0000000000000000e+00  9.7021911109978392e-04 -1.0527189560393183e-08 0.0000000000000000e+00  9.7021911103824438e-04 -1.0527146939972101e-08 0.0000000000000000e+00  9.7021911107674635e-04 -1.0527159106672040e-08 0.0000000000000000e+00  9.7021911105136366e-04 -1.0527152044612770e-08 0.0000000000000000e+00  9.7021911105539191e-04 -1.0527155864257023e-08 0.0000000000000000e+00  9.7021911105307649e-04 -1.0527153656821400e-08 0.0000000000000000e+00  9.7021911105512997e-04 -1.0527150013685260e-08 0.0000000000000000e+00  9.7021911105584489e-04 -1.0527146974016049e-08 0.0000000000000000e+00  9.7021911105263001e-04 7.7145825746188125e-09 0.0000000000000000e+00  1.0134022166849803e-03 -9.2616246460258678e-09 0.0000000000000000e+00  1.0134022166801706e-03 -9.2616226699589882e-09 0.0000000000000000e+00  1.0134022166666859e-03 -9.2616354728687622e-09 0.0000000000000000e+00  1.0134022166754031e-03 -9.2616021017764144e-09 0.0000000000000000e+00  1.0134022166998270e-03 -9.2616166586000429e-09 0.0000000000000000e+00  1.0134022166808673e-03 -9.2616306376523336e-09 0.0000000000000000e+00  1.0134022166833378e-03 -9.2616313574541559e-09 0.0000000000000000e+00  1.0134022166713912e-03 -9.2616146314672410e-09 0.0000000000000000e+00  1.0134022166805811e-03 -9.2616304009709993e-09 0.0000000000000000e+00  1.0134022166928432e-03 -9.2616116145662758e-09 0.0000000000000000e+00  1.0134022166809584e-03 -9.2616394244604203e-09 0.0000000000000000e+00  1.0134022166647350e-03 -9.2616393716597745e-09 0.0000000000000000e+00  1.0134022166802079e-03 -9.2616128041528994e-09 0.0000000000000000e+00  1.0134022166731808e-03 -9.2616244699514350e-09 0.0000000000000000e+00  1.0134022166782800e-03 -9.2616252927524637e-09 0.0000000000000000e+00  1.0134022166716668e-03 -9.2616431977008210e-09 0.0000000000000000e+00  1.0134022166685822e-03 -9.2616088340213842e-09 0.0000000000000000e+00  1.0134022166889312e-03 -9.2616157795289214e-09 0.0000000000000000e+00  1.0134022166855237e-03 -9.2615965293025085e-09 0.0000000000000000e+00  1.0134022166954255e-03 -9.2616025706938540e-09 0.0000000000000000e+00  1.0134022166873500e-03 -9.2616175068798226e-09 0.0000000000000000e+00  1.0134022166769000e-03 -9.2616103230646479e-09 0.0000000000000000e+00  1.0134022166850627e-03 -9.2616280106304696e-09 0.0000000000000000e+00  1.0134022166662770e-03 -9.2616036219362805e-09 0.0000000000000000e+00  1.0134022166961320e-03 -9.2616283775244848e-09 0.0000000000000000e+00  1.0134022166614241e-03 -9.2616424106784639e-09 0.0000000000000000e+00  1.0134022166919804e-03 -9.2616111090028028e-09 0.0000000000000000e+00  1.0134022166857510e-03 -9.2616223180269630e-09 0.0000000000000000e+00  1.0134022166760908e-03 -9.2616221938858143e-09 0.0000000000000000e+00  1.0134022166747377e-03 -9.2616242428110798e-09 0.0000000000000000e+00  1.0134022166849808e-03 7.7371622667124792e-09 0.0000000000000000e+00  8.8135894995699463e-04 -6.1565912629459388e-09 0.0000000000000000e+00  8.8135894995714870e-04 -6.1566028314915394e-09 0.0000000000000000e+00  8.8135894994414022e-04 -6.1565942134937310e-09 0.0000000000000000e+00  8.8135894995458120e-04 -6.1566104574443600e-09 0.0000000000000000e+00  8.8135894996412359e-04 -6.1565955954178200e-09 0.0000000000000000e+00  8.8135894995659163e-04 -6.1565892895895646e-09 0.0000000000000000e+00  8.8135894995546602e-04 -6.1565907010039528e-09 0.0000000000000000e+00  8.8135894996430248e-04 -6.1565866506414768e-09 0.0000000000000000e+00  8.8135894995871548e-04 -6.1565828059521530e-09 0.0000000000000000e+00  8.8135894995971902e-04 -6.1565957360388418e-09 0.0000000000000000e+00  8.8135894996888681e-04 -6.1565894178506816e-09 0.0000000000000000e+00  8.8135894994390734e-04 -6.1566143285882169e-09 0.0000000000000000e+00  8.8135894993315725e-04 -6.1566216079216030e-09 0.0000000000000000e+00  8.8135894995231890e-04 -6.1566038351374905e-09 0.0000000000000000e+00  8.8135894994968852e-04 -6.1565868945869656e-09 0.0000000000000000e+00  8.8135894994962791e-04 -6.1565750443656406e-09 0.0000000000000000e+00  8.8135894995479858e-04 -6.1565869235351636e-09 0.0000000000000000e+00  8.8135894996297932e-04 -6.1565788456868775e-09 0.0000000000000000e+00  8.8135894996605043e-04 -6.1565883569588559e-09 0.0000000000000000e+00  8.8135894995311904e-04 -6.1566074981145302e-09 0.0000000000000000e+00  8.8135894995948515e-04 -6.1566054387809238e-09 0.0000000000000000e+00  8.8135894995703908e-04 -6.1565912415871560e-09 0.0000000000000000e+00  8.8135894995815223e-04 -6.1565875659249508e-09 0.0000000000000000e+00  8.8135894995239328e-04 -6.1566078709716573e-09 0.0000000000000000e+00  8.8135894994306057e-04 -6.1565948141417345e-09 0.0000000000000000e+00  8.8135894996660836e-04 -6.1565827109760426e-09 0.0000000000000000e+00  8.8135894996105519e-04 -6.1565928974891340e-09 0.0000000000000000e+00  8.8135894996167004e-04 -6.1566036444263283e-09 0.0000000000000000e+00  8.8135894995319071e-04 -6.1566048212193664e-09 0.0000000000000000e+00  8.8135894995954446e-04 -6.1566155995984237e-09 0.0000000000000000e+00  8.8135894995699485e-04 6.3310164791469728e-09 0.0000000000000000e+00  5.9692069795319938e-04 -1.9992289325768131e-09 0.0000000000000000e+00  5.9692069795626421e-04 -1.9992084672308154e-09 0.0000000000000000e+00  5.9692069794431988e-04 -1.9992141283382489e-09 0.0000000000000000e+00  5.9692069795004923e-04 -1.9992219887497893e-09 0.0000000000000000e+00  5.9692069795275226e-04 -1.9992139208219531e-09 0.0000000000000000e+00  5.9692069795223759e-04 -1.9991931352026336e-09 0.0000000000000000e+00  5.9692069795997098e-04 -1.9991999875772042e-09 0.0000000000000000e+00  5.9692069796475535e-04 -1.9992170581777796e-09 0.0000000000000000e+00  5.9692069795157297e-04 -1.9992155159543994e-09 0.0000000000000000e+00  5.9692069796051894e-04 -1.9992060640424900e-09 0.0000000000000000e+00  5.9692069795610819e-04 -1.9992113476849371e-09 0.0000000000000000e+00  5.9692069793938762e-04 -1.9992084812712335e-09 0.0000000000000000e+00  5.9692069796873177e-04 -1.9991895430239957e-09 0.0000000000000000e+00  5.9692069795845007e-04 -1.9992154832114938e-09 0.0000000000000000e+00  5.9692069795701979e-04 -1.9992307602706254e-09 0.0000000000000000e+00  5.9692069793761398e-04 -1.9992476884070354e-09 0.0000000000000000e+00  5.9692069794331753e-04 -1.9992006298043610e-09 0.0000000000000000e+00  5.9692069795530490e-04 -1.9992066338991518e-09 0.0000000000000000e+00  5.9692069797383067e-04 -1.9992295469941843e-09 0.0000000000000000e+00  5.9692069793627163e-04 -1.9992291723481236e-09 0.0000000000000000e+00  5.9692069795262768e-04 -1.9992149006696665e-09 0.0000000000000000e+00  5.9692069794220568e-04 -1.9992093807253558e-09 0.0000000000000000e+00  5.9692069795441965e-04 -1.9991950027408757e-09 0.0000000000000000e+00  5.9692069796482539e-04 -1.9992098266034992e-09 0.0000000000000000e+00  5.9692069796026676e-04 -1.9992026122680334e-09 0.0000000000000000e+00  5.9692069794710703e-04 -1.9992129836375952e-09 0.0000000000000000e+00  5.9692069795575452e-04 -1.9992085127673066e-09 0.0000000000000000e+00  5.9692069796062476e-04 -1.9992181389647153e-09 0.0000000000000000e+00  5.9692069793227927e-04 -1.9992143104842139e-09 0.0000000000000000e+00  5.9692069795016915e-04 -1.9992286376196121e-09 0.0000000000000000e+00  5.9692069795319949e-04 3.7895829545888520e-09 0.0000000000000000e+00  2.0926932078270719e-04 2.2062059784307489e-09 0.0000000000000000e+00  2.0926932076233831e-04 2.2061949769635420e-09 0.0000000000000000e+00  2.0926932076800004e-04 2.2062020167289056e-09 0.0000000000000000e+00  2.0926932078181695e-04 2.2061934044909212e-09 0.0000000000000000e+00  2.0926932078170490e-04 2.2061691068832670e-09 0.0000000000000000e+00  2.0926932075482406e-04 2.2062053722397617e-09 0.0000000000000000e+00  2.0926932078340688e-04 2.2061956683728200e-09 0.0000000000000000e+00  2.0926932079016241e-04 2.2061998574589639e-09 0.0000000000000000e+00  2.0926932079130708e-04 2.2062091197032558e-09 0.0000000000000000e+00  2.0926932077326444e-04 2.2061803415352561e-09 0.0000000000000000e+00  2.0926932076252943e-04 2.2061835216222007e-09 0.0000000000000000e+00  2.0926932077808643e-04 2.2061945222491509e-09 0.0000000000000000e+00  2.0926932078109075e-04 2.2061717467800317e-09 0.0000000000000000e+00  2.0926932076871009e-04 2.2061830228756489e-09 0.0000000000000000e+00  2.0926932075714859e-04 2.2061903032661321e-09 0.0000000000000000e+00  2.0926932078766248e-04 2.2061910555262569e-09 0.0000000000000000e+00  2.0926932077131830e-04 2.2061851100868037e-09 0.0000000000000000e+00  2.0926932077701600e-04 2.2062142142608441e-09 0.0000000000000000e+00  2.0926932078818946e-04 2.2062026054100277e-09 0.0000000000000000e+00  2.0926932079389665e-04 2.2061836202439409e-09 0.0000000000000000e+00  2.0926932077284464e-04 2.2061914356068810e-09 0.0000000000000000e+00  2.0926932077432257e-04 2.2061809226540680e-09 0.0000000000000000e+00  2.0926932077605748e-04 2.2061790515379587e-09 0.0000000000000000e+00  2.0926932076709652e-04 2.2061994594890040e-09 0.0000000000000000e+00  2.0926932078358838e-04 2.2062009654458216e-09 0.0000000000000000e+00  2.0926932077891926e-04 2.2061860839036425e-09 0.0000000000000000e+00  2.0926932078432916e-04 2.2061796197954224e-09 0.0000000000000000e+00  2.0926932076990363e-04 2.2062100951463978e-09 0.0000000000000000e+00  2.0926932076653919e-04 2.2061773834658113e-09 0.0000000000000000e+00  2.0926932076764470e-04 2.2061870226871986e-09 0.0000000000000000e+00  2.0926932078270719e-04 6.4295746381168825e-10 0.0000000000000000e+00  -2.1456677397839273e-04 5.6003140553261520e-09 0.0000000000000000e+00  -2.1456677397143058e-04 5.6003156384239541e-09 0.0000000000000000e+00  -2.1456677397700593e-04 5.6003113352797416e-09 0.0000000000000000e+00  -2.1456677398088678e-04 5.6003240486886263e-09 0.0000000000000000e+00  -2.1456677396555573e-04 5.6003144108902544e-09 0.0000000000000000e+00  -2.1456677398074475e-04 5.6003081803598399e-09 0.0000000000000000e+00  -2.1456677398818872e-04 5.6003227424418489e-09 0.0000000000000000e+00  -2.1456677396933032e-04 5.6003215733466463e-09 0.0000000000000000e+00  -2.1456677397164688e-04 5.6003272321772553e-09 0.0000000000000000e+00  -2.1456677395606907e-04 5.6003281954908855e-09 0.0000000000000000e+00  -2.1456677399013594e-04 5.6002956300691721e-09 0.0000000000000000e+00  -2.1456677397261090e-04 5.6003241246369885e-09 0.0000000000000000e+00  -2.1456677397573969e-04 5.6003176090698228e-09 0.0000000000000000e+00  -2.1456677397133680e-04 5.6003034018471849e-09 0.0000000000000000e+00  -2.1456677398399242e-04 5.6003103700687576e-09 0.0000000000000000e+00  -2.1456677397135084e-04 5.6003148719472283e-09 0.0000000000000000e+00  -2.1456677398000548e-04 5.6003265165496113e-09 0.0000000000000000e+00  -2.1456677396426406e-04 5.6003205679659718e-09 0.0000000000000000e+00  -2.1456677396596339e-04 5.6003153852627469e-09 0.0000000000000000e+00  -2.1456677397505307e-04 5.6002979528639064e-09 0.0000000000000000e+00  -2.1456677396768667e-04 5.6002941100719364e-09 0.0000000000000000e+00  -2.1456677399341614e-04 5.6003282507309862e-09 0.0000000000000000e+00  -2.1456677398062760e-04 5.6003135208686911e-09 0.0000000000000000e+00  -2.1456677397844548e-04 5.6003324155310015e-09 0.0000000000000000e+00  -2.1456677396239658e-04 5.6003273791408598e-09 0.0000000000000000e+00  -2.1456677397111508e-04 5.6003040316602269e-09 0.0000000000000000e+00  -2.1456677397212290e-04 5.6002976366021327e-09 0.0000000000000000e+00  -2.1456677397290255e-04 5.6003022951478174e-09 0.0000000000000000e+00  -2.1456677397306789e-04 5.6003278938658412e-09 0.0000000000000000e+00  -2.1456677398321277e-04 5.6003073773455009e-09 0.0000000000000000e+00  -2.1456677397839290e-04 -2.4930534695641988e-09 0.0000000000000000e+00  -6.0130242678416688e-04 7.7048436803849735e-09 0.0000000000000000e+00  -6.0130242676410014e-04 7.7048291421012022e-09 0.00