<?xml version="1.0"?>
<VTKFile type="UnstructuredGrid"  version="0.1"  >
<UnstructuredGrid>
<Piece  NumberOfPoints="961" NumberOfCells="1800">
<Points>
<DataArray  type="Float64"  NumberOfComponents="3"  format="ascii">0 0 0  0.03333333333333333 0 0  0.06666666666666667 0 0  0.1 0 0  0.1333333333333333 0 0  0.1666666666666667 0 0  0.2 0 0  0.2333333333333333 0 0  0.2666666666666667 0 0  0.3 0 0  0.3333333333333333 0 0  0.3666666666666666 0 0  0.4 0 0  0.4333333333333333 0 0  0.4666666666666667 0 0  0.5 0 0  0.5333333333333333 0 0  0.5666666666666667 0 0  0.6 0 0  0.6333333333333333 0 0  0.6666666666666666 0 0  0.7 0 0  0.7333333333333333 0 0  0.7666666666666667 0 0  0.8 0 0  0.8333333333333334 0 0  0.8666666666666667 0 0  0.9 0 0  0.9333333333333333 0 0  0.9666666666666667 0 0  1 0 0  0 0.03333333333333333 0  0.03333333333333333 0.03333333333333333 0  0.06666666666666667 0.03333333333333333 0  0.1 0.03333333333333333 0  0.1333333333333333 0.03333333333333333 0  0.1666666666666667 0.03333333333333333 0  0.2 0.03333333333333333 0  0.2333333333333333 0.03333333333333333 0  0.2666666666666667 0.03333333333333333 0  0.3 0.03333333333333333 0  0.3333333333333333 0.03333333333333333 0  0.3666666666666666 0.03333333333333333 0  0.4 0.03333333333333333 0  0.4333333333333333 0.03333333333333333 0  0.4666666666666667 0.03333333333333333 0  0.5 0.03333333333333333 0  0.5333333333333333 0.03333333333333333 0  0.5666666666666667 0.03333333333333333 0  0.6 0.03333333333333333 0  0.6333333333333333 0.03333333333333333 0  0.6666666666666666 0.03333333333333333 0  0.7 0.03333333333333333 0  0.7333333333333333 0.03333333333333333 0  0.7666666666666667 0.03333333333333333 0  0.8 0.03333333333333333 0  0.8333333333333334 0.03333333333333333 0  0.8666666666666667 0.03333333333333333 0  0.9 0.03333333333333333 0  0.9333333333333333 0.03333333333333333 0  0.9666666666666667 0.03333333333333333 0  1 0.03333333333333333 0  0 0.06666666666666667 0  0.03333333333333333 0.06666666666666667 0  0.06666666666666667 0.06666666666666667 0  0.1 0.06666666666666667 0  0.1333333333333333 0.06666666666666667 0  0.1666666666666667 0.06666666666666667 0  0.2 0.06666666666666667 0  0.2333333333333333 0.06666666666666667 0  0.2666666666666667 0.06666666666666667 0  0.3 0.06666666666666667 0  0.3333333333333333 0.06666666666666667 0  0.3666666666666666 0.06666666666666667 0  0.4 0.06666666666666667 0  0.4333333333333333 0.06666666666666667 0  0.4666666666666667 0.06666666666666667 0  0.5 0.06666666666666667 0  0.5333333333333333 0.06666666666666667 0  0.5666666666666667 0.06666666666666667 0  0.6 0.06666666666666667 0  0.6333333333333333 0.06666666666666667 0  0.6666666666666666 0.06666666666666667 0  0.7 0.06666666666666667 0  0.7333333333333333 0.06666666666666667 0  0.7666666666666667 0.06666666666666667 0  0.8 0.06666666666666667 0  0.8333333333333334 0.06666666666666667 0  0.8666666666666667 0.06666666666666667 0  0.9 0.06666666666666667 0  0.9333333333333333 0.06666666666666667 0  0.9666666666666667 0.06666666666666667 0  1 0.06666666666666667 0  0 0.1 0  0.03333333333333333 0.1 0  0.06666666666666667 0.1 0  0.1 0.1 0  0.1333333333333333 0.1 0  0.1666666666666667 0.1 0  0.2 0.1 0  0.2333333333333333 0.1 0  0.2666666666666667 0.1 0  0.3 0.1 0  0.3333333333333333 0.1 0  0.3666666666666666 0.1 0  0.4 0.1 0  0.4333333333333333 0.1 0  0.4666666666666667 0.1 0  0.5 0.1 0  0.5333333333333333 0.1 0  0.5666666666666667 0.1 0  0.6 0.1 0  0.6333333333333333 0.1 0  0.6666666666666666 0.1 0  0.7 0.1 0  0.7333333333333333 0.1 0  0.7666666666666667 0.1 0  0.8 0.1 0  0.8333333333333334 0.1 0  0.8666666666666667 0.1 0  0.9 0.1 0  0.9333333333333333 0.1 0  0.9666666666666667 0.1 0  1 0.1 0  0 0.1333333333333333 0  0.03333333333333333 0.1333333333333333 0  0.06666666666666667 0.1333333333333333 0  0.1 0.1333333333333333 0  0.1333333333333333 0.1333333333333333 0  0.1666666666666667 0.1333333333333333 0  0.2 0.1333333333333333 0  0.2333333333333333 0.1333333333333333 0  0.2666666666666667 0.1333333333333333 0  0.3 0.1333333333333333 0  0.3333333333333333 0.1333333333333333 0  0.3666666666666666 0.1333333333333333 0  0.4 0.1333333333333333 0  0.4333333333333333 0.1333333333333333 0  0.4666666666666667 0.1333333333333333 0  0.5 0.1333333333333333 0  0.5333333333333333 0.1333333333333333 0  0.5666666666666667 0.1333333333333333 0  0.6 0.1333333333333333 0  0.6333333333333333 0.1333333333333333 0  0.6666666666666666 0.1333333333333333 0  0.7 0.1333333333333333 0  0.7333333333333333 0.1333333333333333 0  0.7666666666666667 0.1333333333333333 0  0.8 0.1333333333333333 0  0.8333333333333334 0.1333333333333333 0  0.8666666666666667 0.1333333333333333 0  0.9 0.1333333333333333 0  0.9333333333333333 0.1333333333333333 0  0.9666666666666667 0.1333333333333333 0  1 0.1333333333333333 0  0 0.1666666666666667 0  0.03333333333333333 0.1666666666666667 0  0.06666666666666667 0.1666666666666667 0  0.1 0.1666666666666667 0  0.1333333333333333 0.1666666666666667 0  0.1666666666666667 0.1666666666666667 0  0.2 0.1666666666666667 0  0.2333333333333333 0.1666666666666667 0  0.2666666666666667 0.1666666666666667 0  0.3 0.1666666666666667 0  0.3333333333333333 0.1666666666666667 0  0.3666666666666666 0.1666666666666667 0  0.4 0.1666666666666667 0  0.4333333333333333 0.1666666666666667 0  0.4666666666666667 0.1666666666666667 0  0.5 0.1666666666666667 0  0.5333333333333333 0.1666666666666667 0  0.5666666666666667 0.1666666666666667 0  0.6 0.1666666666666667 0  0.6333333333333333 0.1666666666666667 0  0.6666666666666666 0.1666666666666667 0  0.7 0.1666666666666667 0  0.7333333333333333 0.1666666666666667 0  0.7666666666666667 0.1666666666666667 0  0.8 0.1666666666666667 0  0.8333333333333334 0.1666666666666667 0  0.8666666666666667 0.1666666666666667 0  0.9 0.1666666666666667 0  0.9333333333333333 0.1666666666666667 0  0.9666666666666667 0.1666666666666667 0  1 0.1666666666666667 0  0 0.2 0  0.03333333333333333 0.2 0  0.06666666666666667 0.2 0  0.1 0.2 0  0.1333333333333333 0.2 0  0.1666666666666667 0.2 0  0.2 0.2 0  0.2333333333333333 0.2 0  0.2666666666666667 0.2 0  0.3 0.2 0  0.3333333333333333 0.2 0  0.3666666666666666 0.2 0  0.4 0.2 0  0.4333333333333333 0.2 0  0.4666666666666667 0.2 0  0.5 0.2 0  0.5333333333333333 0.2 0  0.5666666666666667 0.2 0  0.6 0.2 0  0.6333333333333333 0.2 0  0.6666666666666666 0.2 0  0.7 0.2 0  0.7333333333333333 0.2 0  0.7666666666666667 0.2 0  0.8 0.2 0  0.8333333333333334 0.2 0  0.8666666666666667 0.2 0  0.9 0.2 0  0.9333333333333333 0.2 0  0.9666666666666667 0.2 0  1 0.2 0  0 0.2333333333333333 0  0.03333333333333333 0.2333333333333333 0  0.06666666666666667 0.2333333333333333 0  0.1 0.2333333333333333 0  0.1333333333333333 0.2333333333333333 0  0.1666666666666667 0.2333333333333333 0  0.2 0.2333333333333333 0  0.2333333333333333 0.2333333333333333 0  0.2666666666666667 0.2333333333333333 0  0.3 0.2333333333333333 0  0.3333333333333333 0.2333333333333333 0  0.3666666666666666 0.2333333333333333 0  0.4 0.2333333333333333 0  0.4333333333333333 0.2333333333333333 0  0.4666666666666667 0.2333333333333333 0  0.5 0.2333333333333333 0  0.5333333333333333 0.2333333333333333 0  0.5666666666666667 0.2333333333333333 0  0.6 0.2333333333333333 0  0.6333333333333333 0.2333333333333333 0  0.6666666666666666 0.2333333333333333 0  0.7 0.2333333333333333 0  0.7333333333333333 0.2333333333333333 0  0.7666666666666667 0.2333333333333333 0  0.8 0.2333333333333333 0  0.8333333333333334 0.2333333333333333 0  0.8666666666666667 0.2333333333333333 0  0.9 0.2333333333333333 0  0.9333333333333333 0.2333333333333333 0  0.9666666666666667 0.2333333333333333 0  1 0.2333333333333333 0  0 0.2666666666666667 0  0.03333333333333333 0.2666666666666667 0  0.06666666666666667 0.2666666666666667 0  0.1 0.2666666666666667 0  0.1333333333333333 0.2666666666666667 0  0.1666666666666667 0.2666666666666667 0  0.2 0.2666666666666667 0  0.2333333333333333 0.2666666666666667 0  0.2666666666666667 0.2666666666666667 0  0.3 0.2666666666666667 0  0.3333333333333333 0.2666666666666667 0  0.3666666666666666 0.2666666666666667 0  0.4 0.2666666666666667 0  0.4333333333333333 0.2666666666666667 0  0.4666666666666667 0.2666666666666667 0  0.5 0.2666666666666667 0  0.5333333333333333 0.2666666666666667 0  0.5666666666666667 0.2666666666666667 0  0.6 0.2666666666666667 0  0.6333333333333333 0.2666666666666667 0  0.6666666666666666 0.2666666666666667 0  0.7 0.2666666666666667 0  0.7333333333333333 0.2666666666666667 0  0.7666666666666667 0.2666666666666667 0  0.8 0.2666666666666667 0  0.8333333333333334 0.2666666666666667 0  0.8666666666666667 0.2666666666666667 0  0.9 0.2666666666666667 0  0.9333333333333333 0.2666666666666667 0  0.9666666666666667 0.2666666666666667 0  1 0.2666666666666667 0  0 0.3 0  0.03333333333333333 0.3 0  0.06666666666666667 0.3 0  0.1 0.3 0  0.1333333333333333 0.3 0  0.1666666666666667 0.3 0  0.2 0.3 0  0.2333333333333333 0.3 0  0.2666666666666667 0.3 0  0.3 0.3 0  0.3333333333333333 0.3 0  0.3666666666666666 0.3 0  0.4 0.3 0  0.4333333333333333 0.3 0  0.4666666666666667 0.3 0  0.5 0.3 0  0.5333333333333333 0.3 0  0.5666666666666667 0.3 0  0.6 0.3 0  0.6333333333333333 0.3 0  0.6666666666666666 0.3 0  0.7 0.3 0  0.7333333333333333 0.3 0  0.7666666666666667 0.3 0  0.8 0.3 0  0.8333333333333334 0.3 0  0.8666666666666667 0.3 0  0.9 0.3 0  0.9333333333333333 0.3 0  0.9666666666666667 0.3 0  1 0.3 0  0 0.3333333333333333 0  0.03333333333333333 0.3333333333333333 0  0.06666666666666667 0.3333333333333333 0  0.1 0.3333333333333333 0  0.1333333333333333 0.3333333333333333 0  0.1666666666666667 0.3333333333333333 0  0.2 0.3333333333333333 0  0.2333333333333333 0.3333333333333333 0  0.2666666666666667 0.3333333333333333 0  0.3 0.3333333333333333 0  0.3333333333333333 0.3333333333333333 0  0.3666666666666666 0.3333333333333333 0  0.4 0.3333333333333333 0  0.4333333333333333 0.3333333333333333 0  0.4666666666666667 0.3333333333333333 0  0.5 0.3333333333333333 0  0.5333333333333333 0.33333333333333
[...]
<PointData  Vectors="u_f"> 
<DataArray  type="Float64"  Name="u_f"  NumberOfComponents="3" format="ascii">2.7098596968953143e-06 4.2184825264587368e-09 0.0000000000000000e+00  2.7098597012957656e-06 4.2184561626734500e-09 0.0000000000000000e+00  2.7098597031152195e-06 4.2184758549832987e-09 0.0000000000000000e+00  2.7098596849741319e-06 4.2184751346393753e-09 0.0000000000000000e+00  2.7098597141348877e-06 4.2184785849501590e-09 0.0000000000000000e+00  2.7098596987469147e-06 4.2184580591598901e-09 0.0000000000000000e+00  2.7098596945866141e-06 4.2184705641309071e-09 0.0000000000000000e+00  2.7098596947165558e-06 4.2184749427355908e-09 0.0000000000000000e+00  2.7098596958782784e-06 4.2184701335942244e-09 0.0000000000000000e+00  2.7098597013137092e-06 4.2184554301864623e-09 0.0000000000000000e+00  2.7098596894491764e-06 4.2184775771300295e-09 0.0000000000000000e+00  2.7098596838443390e-06 4.2184056097413838e-09 0.0000000000000000e+00  2.7098596546122427e-06 4.2184735197202394e-09 0.0000000000000000e+00  2.7098597000957706e-06 4.2184840987145172e-09 0.0000000000000000e+00  2.7098597084975243e-06 4.2184750654130666e-09 0.0000000000000000e+00  2.7098596863707469e-06 4.2184771721805181e-09 0.0000000000000000e+00  2.7098596947118395e-06 4.2184664557636149e-09 0.0000000000000000e+00  2.7098596963319086e-06 4.2184862010909499e-09 0.0000000000000000e+00  2.7098597194871602e-06 4.2184829661027178e-09 0.0000000000000000e+00  2.7098596997211788e-06 4.2184682073464347e-09 0.0000000000000000e+00  2.7098597106210969e-06 4.2184825458117456e-09 0.0000000000000000e+00  2.7098596914928975e-06 4.2184558108498450e-09 0.0000000000000000e+00  2.7098597254820393e-06 4.2185730804336456e-09 0.0000000000000000e+00  2.7098597549844814e-06 4.2185157329691948e-09 0.0000000000000000e+00  2.7098597130899337e-06 4.2184660414899648e-09 0.0000000000000000e+00  2.7098596953121622e-06 4.2184703695708273e-09 0.0000000000000000e+00  2.7098597005219163e-06 4.2184822197921523e-09 0.0000000000000000e+00  2.7098597054194744e-06 4.2184683842882292e-09 0.0000000000000000e+00  2.7098597015275138e-06 4.2184748340985331e-09 0.0000000000000000e+00  2.7098597162592735e-06 4.2184790019343145e-09 0.0000000000000000e+00  2.7098596968953685e-06 -1.0142458247691562e-09 0.0000000000000000e+00  4.1705408075105399e-04 8.8994298807435618e-09 0.0000000000000000e+00  4.1705408074071656e-04 8.8994468188004217e-09 0.0000000000000000e+00  4.1705408074649514e-04 8.8994322860460814e-09 0.0000000000000000e+00  4.1705408075228955e-04 8.8994336359862064e-09 0.0000000000000000e+00  4.1705408074650999e-04 8.8994142839532095e-09 0.0000000000000000e+00  4.1705408073572131e-04 8.8994329991258503e-09 0.0000000000000000e+00  4.1705408075311560e-04 8.8994256016144274e-09 0.0000000000000000e+00  4.1705408073465912e-04 8.8994353829611669e-09 0.0000000000000000e+00  4.1705408075290158e-04 8.8994546173582281e-09 0.0000000000000000e+00  4.1705408074034533e-04 8.8994350559657917e-09 0.0000000000000000e+00  4.1705408074996166e-04 8.8994349345351484e-09 0.0000000000000000e+00  4.1705408069896068e-04 8.8993608172820149e-09 0.0000000000000000e+00  4.1705408071211639e-04 8.8994180091634539e-09 0.0000000000000000e+00  4.1705408075227394e-04 8.8994415155339152e-09 0.0000000000000000e+00  4.1705408073495077e-04 8.8994331221827969e-09 0.0000000000000000e+00  4.1705408074847175e-04 8.8994199743883118e-09 0.0000000000000000e+00  4.1705408073781653e-04 8.8994215208942906e-09 0.0000000000000000e+00  4.1705408075213191e-04 8.8994181470739703e-09 0.0000000000000000e+00  4.1705408073924117e-04 8.8994169186729088e-09 0.0000000000000000e+00  4.1705408075312428e-04 8.8994215991736875e-09 0.0000000000000000e+00  4.1705408073557711e-04 8.8994278791979312e-09 0.0000000000000000e+00  4.1705408075684710e-04 8.8994298041988884e-09 0.0000000000000000e+00  4.1705408078326011e-04 8.8994830418865842e-09 0.0000000000000000e+00  4.1705408079569059e-04 8.8994500400734963e-09 0.0000000000000000e+00  4.1705408073883894e-04 8.8994455915919826e-09 0.0000000000000000e+00  4.1705408074969950e-04 8.8994430997701296e-09 0.0000000000000000e+00  4.1705408075732003e-04 8.8994498146678647e-09 0.0000000000000000e+00  4.1705408074322009e-04 8.8994368335152535e-09 0.0000000000000000e+00  4.1705408074404701e-04 8.8994251441895308e-09 0.0000000000000000e+00  4.1705408074610168e-04 8.8994446529981619e-09 0.0000000000000000e+00  4.1705408075105421e-04 -2.4115701129628990e-09 0.0000000000000000e+00  7.5928582391125005e-04 1.1891001285729320e-08 0.0000000000000000e+00  7.5928582390507010e-04 1.1891006905257601e-08 0.0000000000000000e+00  7.5928582390611754e-04 1.1891026143232529e-08 0.0000000000000000e+00  7.5928582391483160e-04 1.1891033695568022e-08 0.0000000000000000e+00  7.5928582390098276e-04 1.1891029155579845e-08 0.0000000000000000e+00  7.5928582390371181e-04 1.1891020437510176e-08 0.0000000000000000e+00  7.5928582391923964e-04 1.1891030944838690e-08 0.0000000000000000e+00  7.5928582391216143e-04 1.1891024314075044e-08 0.0000000000000000e+00  7.5928582389989791e-04 1.1891023728172190e-08 0.0000000000000000e+00  7.5928582391788374e-04 1.1891006324667337e-08 0.0000000000000000e+00  7.5928582390089234e-04 1.1891045781603320e-08 0.0000000000000000e+00  7.5928582386726473e-04 1.1890951077085654e-08 0.0000000000000000e+00  7.5928582386487981e-04 1.1890999541898546e-08 0.0000000000000000e+00  7.5928582389934020e-04 1.1890995188935244e-08 0.0000000000000000e+00  7.5928582389559894e-04 1.1891001000584149e-08 0.0000000000000000e+00  7.5928582390036379e-04 1.1891000612439771e-08 0.0000000000000000e+00  7.5928582390046701e-04 1.1891022902443815e-08 0.0000000000000000e+00  7.5928582391215623e-04 1.1891020360640242e-08 0.0000000000000000e+00  7.5928582389425063e-04 1.1891023600778435e-08 0.0000000000000000e+00  7.5928582391814980e-04 1.1891037129453143e-08 0.0000000000000000e+00  7.5928582391288188e-04 1.1891018927975491e-08 0.0000000000000000e+00  7.5928582390778407e-04 1.1891007585702884e-08 0.0000000000000000e+00  7.5928582395616562e-04 1.1891088175534567e-08 0.0000000000000000e+00  7.5928582392571688e-04 1.1891016690073787e-08 0.0000000000000000e+00  7.5928582391947741e-04 1.1891029226378247e-08 0.0000000000000000e+00  7.5928582390921544e-04 1.1891031255028932e-08 0.0000000000000000e+00  7.5928582391954159e-04 1.1891032549783166e-08 0.0000000000000000e+00  7.5928582391321007e-04 1.1891024559863676e-08 0.0000000000000000e+00  7.5928582389361897e-04 1.1891027348540084e-08 0.0000000000000000e+00  7.5928582391082623e-04 1.1891007515663424e-08 0.0000000000000000e+00  7.5928582391125027e-04 -3.3082309916479770e-09 0.0000000000000000e+00  9.7023020579932711e-04 1.2940186670893500e-08 0.0000000000000000e+00  9.7023020580289175e-04 1.2940165382583843e-08 0.0000000000000000e+00  9.7023020579598061e-04 1.2940177218168439e-08 0.0000000000000000e+00  9.7023020580261875e-04 1.2940154447320731e-08 0.0000000000000000e+00  9.7023020579131702e-04 1.2940187210609341e-08 0.0000000000000000e+00  9.7023020581621920e-04 1.2940169206131225e-08 0.0000000000000000e+00  9.7023020579504408e-04 1.2940178255533077e-08 0.0000000000000000e+00  9.7023020580761106e-04 1.2940176998292238e-08 0.0000000000000000e+00  9.7023020580547866e-04 1.2940179547251546e-08 0.0000000000000000e+00  9.7023020580298456e-04 1.2940180757871692e-08 0.0000000000000000e+00  9.7023020580982761e-04 1.2940177090232582e-08 0.0000000000000000e+00  9.7023020578610591e-04 1.2940203359583860e-08 0.0000000000000000e+00  9.7023020580663203e-04 1.2940167053339391e-08 0.0000000000000000e+00  9.7023020579236588e-04 1.2940209967579261e-08 0.0000000000000000e+00  9.7023020581653839e-04 1.2940195845629124e-08 0.0000000000000000e+00  9.7023020579690891e-04 1.2940173757828785e-08 0.0000000000000000e+00  9.7023020580434241e-04 1.2940191141926419e-08 0.0000000000000000e+00  9.7023020581023136e-04 1.2940178155352797e-08 0.0000000000000000e+00  9.7023020580453887e-04 1.2940156198524080e-08 0.0000000000000000e+00  9.7023020578780139e-04 1.2940173130292568e-08 0.0000000000000000e+00  9.7023020581410544e-04 1.2940152003095354e-08 0.0000000000000000e+00  9.7023020579459587e-04 1.2940164376444227e-08 0.0000000000000000e+00  9.7023020582569556e-04 1.2940161211658086e-08 0.0000000000000000e+00  9.7023020578659511e-04 1.2940189947352465e-08 0.0000000000000000e+00  9.7023020581443764e-04 1.2940175680769758e-08 0.0000000000000000e+00  9.7023020579705549e-04 1.2940179398932689e-08 0.0000000000000000e+00  9.7023020581165687e-04 1.2940166995442995e-08 0.0000000000000000e+00  9.7023020580290411e-04 1.2940175700502238e-08 0.0000000000000000e+00  9.7023020580295875e-04 1.2940152576638303e-08 0.0000000000000000e+00  9.7023020579846886e-04 1.2940180633405282e-08 0.0000000000000000e+00  9.7023020579932711e-04 -3.6299600958642721e-09 0.0000000000000000e+00  1.0134130706189195e-03 1.2014422748124129e-08 0.0000000000000000e+00  1.0134130706227907e-03 1.2014420997137620e-08 0.0000000000000000e+00  1.0134130706379845e-03 1.2014417740736395e-08 0.0000000000000000e+00  1.0134130706274903e-03 1.2014407962533842e-08 0.0000000000000000e+00  1.0134130706190461e-03 1.2014409429025701e-08 0.0000000000000000e+00  1.0134130706326403e-03 1.2014433528780011e-08 0.0000000000000000e+00  1.0134130706448664e-03 1.2014418785582029e-08 0.0000000000000000e+00  1.0134130706251254e-03 1.2014420557710480e-08 0.0000000000000000e+00  1.0134130706484891e-03 1.2014432368575266e-08 0.0000000000000000e+00  1.0134130706274521e-03 1.2014408911861264e-08 0.0000000000000000e+00  1.0134130706221764e-03 1.2014438761681796e-08 0.0000000000000000e+00  1.0134130706508479e-03 1.2014422997815889e-08 0.0000000000000000e+00  1.0134130706293170e-03 1.2014430974291272e-08 0.0000000000000000e+00  1.0134130706271045e-03 1.2014412978161512e-08 0.0000000000000000e+00  1.0134130706358061e-03 1.2014416614141918e-08 0.0000000000000000e+00  1.0134130706387816e-03 1.2014435652948907e-08 0.0000000000000000e+00  1.0134130706392660e-03 1.2014432556575923e-08 0.0000000000000000e+00  1.0134130706370872e-03 1.2014412950839617e-08 0.0000000000000000e+00  1.0134130706313028e-03 1.2014408769505519e-08 0.0000000000000000e+00  1.0134130706267253e-03 1.2014413434176946e-08 0.0000000000000000e+00  1.0134130706318314e-03 1.2014422061715734e-08 0.0000000000000000e+00  1.0134130706285882e-03 1.2014427867726787e-08 0.0000000000000000e+00  1.0134130706355975e-03 1.2014422970385574e-08 0.0000000000000000e+00  1.0134130706370673e-03 1.2014423559649455e-08 0.0000000000000000e+00  1.0134130706328389e-03 1.2014437427462603e-08 0.0000000000000000e+00  1.0134130706301568e-03 1.2014443279443829e-08 0.0000000000000000e+00  1.0134130706417348e-03 1.2014412496992588e-08 0.0000000000000000e+00  1.0134130706152028e-03 1.2014435151939083e-08 0.0000000000000000e+00  1.0134130706582925e-03 1.2014434718691895e-08 0.0000000000000000e+00  1.0134130706313509e-03 1.2014425833546671e-08 0.0000000000000000e+00  1.0134130706189199e-03 -3.3898092238651877e-09 0.0000000000000000e+00  8.8136767375960169e-04 9.2090498578613691e-09 0.0000000000000000e+00  8.8136767376009988e-04 9.2090444833627799e-09 0.0000000000000000e+00  8.8136767376985651e-04 9.2090529522827896e-09 0.0000000000000000e+00  8.8136767377085820e-04 9.2090437805829317e-09 0.0000000000000000e+00  8.8136767374824045e-04 9.2090382820516140e-09 0.0000000000000000e+00  8.8136767377432451e-04 9.2090477252356959e-09 0.0000000000000000e+00  8.8136767375420356e-04 9.2090314266412773e-09 0.0000000000000000e+00  8.8136767378302447e-04 9.2090375560698393e-09 0.0000000000000000e+00  8.8136767375594826e-04 9.2090362721576266e-09 0.0000000000000000e+00  8.8136767375477829e-04 9.2090442416941157e-09 0.0000000000000000e+00  8.8136767376759226e-04 9.2090629781171190e-09 0.0000000000000000e+00  8.8136767377317211e-04 9.2090682315103256e-09 0.0000000000000000e+00  8.8136767377982813e-04 9.2090550005575339e-09 0.0000000000000000e+00  8.8136767376207335e-04 9.2090432199419883e-09 0.0000000000000000e+00  8.8136767377084313e-04 9.2090657376284885e-09 0.0000000000000000e+00  8.8136767376565024e-04 9.2090451789868938e-09 0.0000000000000000e+00  8.8136767377771296e-04 9.2090416830854088e-09 0.0000000000000000e+00  8.8136767375634280e-04 9.2090348568401106e-09 0.0000000000000000e+00  8.8136767376212767e-04 9.2090662140269230e-09 0.0000000000000000e+00  8.8136767376588985e-04 9.2090559151904866e-09 0.0000000000000000e+00  8.8136767378014884e-04 9.2090429268821411e-09 0.0000000000000000e+00  8.8136767376365834e-04 9.2090420115986671e-09 0.0000000000000000e+00  8.8136767375752837e-04 9.2090376542985561e-09 0.0000000000000000e+00  8.8136767377664828e-04 9.2090512988744766e-09 0.0000000000000000e+00  8.8136767376501045e-04 9.2090218803495688e-09 0.0000000000000000e+00  8.8136767375725808e-04 9.2090315027522698e-09 0.0000000000000000e+00  8.8136767376866866e-04 9.2090494014122545e-09 0.0000000000000000e+00  8.8136767376479383e-04 9.2090418559072351e-09 0.0000000000000000e+00  8.8136767377384150e-04 9.2090492533102378e-09 0.0000000000000000e+00  8.8136767377644260e-04 9.2090552257463251e-09 0.0000000000000000e+00  8.8136767375960191e-04 -2.6403956497735473e-09 0.0000000000000000e+00  5.9692577260376124e-04 4.7737851786269943e-09 0.0000000000000000e+00  5.9692577260513188e-04 4.7737731540117498e-09 0.0000000000000000e+00  5.9692577260870054e-04 4.7737767916726688e-09 0.0000000000000000e+00  5.9692577259476800e-04 4.7737895703505243e-09 0.0000000000000000e+00  5.9692577260371798e-04 4.7737831523073440e-09 0.0000000000000000e+00  5.9692577260524844e-04 4.7737607138218126e-09 0.0000000000000000e+00  5.9692577259073303e-04 4.7737819233099714e-09 0.0000000000000000e+00  5.9692577259770055e-04 4.7737758988321798e-09 0.0000000000000000e+00  5.9692577262261909e-04 4.7737704865491448e-09 0.0000000000000000e+00  5.9692577260081871e-04 4.7737746442476359e-09 0.0000000000000000e+00  5.9692577260492936e-04 4.7737819651601753e-09 0.0000000000000000e+00  5.9692577259454888e-04 4.7737764638641420e-09 0.0000000000000000e+00  5.9692577261339329e-04 4.7737902460795283e-09 0.0000000000000000e+00  5.9692577259239294e-04 4.7737938473654644e-09 0.0000000000000000e+00  5.9692577260380862e-04 4.7737948005418043e-09 0.0000000000000000e+00  5.9692577262646909e-04 4.7737998615975455e-09 0.0000000000000000e+00  5.9692577260610333e-04 4.7737619700868698e-09 0.0000000000000000e+00  5.9692577259704168e-04 4.7737630018678673e-09 0.0000000000000000e+00  5.9692577260369911e-04 4.7737816062350460e-09 0.0000000000000000e+00  5.9692577260521710e-04 4.7737979489022829e-09 0.0000000000000000e+00  5.9692577262035734e-04 4.7737970167594651e-09 0.0000000000000000e+00  5.9692577260106743e-04 4.7737800654211286e-09 0.0000000000000000e+00  5.9692577260975254e-04 4.7737783331371075e-09 0.0000000000000000e+00  5.9692577259640883e-04 4.7737767339389031e-09 0.0000000000000000e+00  5.9692577260506651e-04 4.7737884220720034e-09 0.0000000000000000e+00  5.9692577260357974e-04 4.7737741311489577e-09 0.0000000000000000e+00  5.9692577259679719e-04 4.7737639671872716e-09 0.0000000000000000e+00  5.9692577260179514e-04 4.7737885357506012e-09 0.0000000000000000e+00  5.9692577262732659e-04 4.7738046870019445e-09 0.0000000000000000e+00  5.9692577260613889e-04 4.7737784335884388e-09 0.0000000000000000e+00  5.9692577260376134e-04 -1.4584930505082931e-09 0.0000000000000000e+00  2.0926986848113598e-04 -7.7471437729857099e-10 0.0000000000000000e+00  2.0926986848445345e-04 -7.7473228048509975e-10 0.0000000000000000e+00  2.0926986849067631e-04 -7.7472698041698967e-10 0.0000000000000000e+00  2.0926986847243510e-04 -7.7472425992334594e-10 0.0000000000000000e+00  2.0926986847154486e-04 -7.7470954166201401e-10 0.0000000000000000e+00  2.0926986849388783e-04 -7.7472349199649970e-10 0.0000000000000000e+00  2.0926986847475911e-04 -7.7473764773308695e-10 0.0000000000000000e+00  2.0926986848772238e-04 -7.7471813938524182e-10 0.0000000000000000e+00  2.0926986847531301e-04 -7.7472379417719769e-10 0.0000000000000000e+00  2.0926986848990764e-04 -7.7471011051578886e-10 0.0000000000000000e+00  2.0926986848453843e-04 -7.7471310977136366e-10 0.0000000000000000e+00  2.0926986847227553e-04 -7.7471859214806905e-10 0.0000000000000000e+00  2.0926986848129403e-04 -7.7472038436136523e-10 0.0000000000000000e+00  2.0926986847216557e-04 -7.7472036373441890e-10 0.0000000000000000e+00  2.0926986848567052e-04 -7.7472757510188128e-10 0.0000000000000000e+00  2.0926986848178924e-04 -7.7470912307866027e-10 0.0000000000000000e+00  2.0926986850447585e-04 -7.7472474225778742e-10 0.0000000000000000e+00  2.0926986849004593e-04 -7.7472897819501774e-10 0.0000000000000000e+00  2.0926986848034617e-04 -7.7473526598485949e-10 0.0000000000000000e+00  2.0926986848319063e-04 -7.7471736264925293e-10 0.0000000000000000e+00  2.0926986848741116e-04 -7.7472989518611018e-10 0.0000000000000000e+00  2.0926986848605745e-04 -7.7471958037124422e-10 0.0000000000000000e+00  2.0926986849021238e-04 -7.7471349439208435e-10 0.0000000000000000e+00  2.0926986847278153e-04 -7.7472714524282494e-10 0.0000000000000000e+00  2.0926986848315984e-04 -7.7473336123137782e-10 0.0000000000000000e+00  2.0926986848032584e-04 -7.7471140032335083e-10 0.0000000000000000e+00  2.0926986848518578e-04 -7.7468828543118904e-10 0.0000000000000000e+00  2.0926986847758660e-04 -7.7472570063829779e-10 0.0000000000000000e+00  2.0926986849251179e-04 -7.7472560769506656e-10 0.0000000000000000e+00  2.0926986848974143e-04 -7.7472185368570191e-10 0.0000000000000000e+00  2.0926986848113601e-04 3.2768275673737316e-11 0.0000000000000000e+00  -2.1457083650837621e-04 -6.5767432654907122e-09 0.0000000000000000e+00  -2.1457083649482255e-04 -6.5767255011091666e-09 0.0000000000000000e+00  -2.1457083649226714e-04 -6.5767209553205079e-09 0.0000000000000000e+00  -2.1457083650075091e-04 -6.5767400444344780e-09 0.0000000000000000e+00  -2.1457083651921926e-04 -6.5767387901209846e-09 0.0000000000000000e+00  -2.1457083650447233e-04 -6.5767164614109232e-09 0.0000000000000000e+00  -2.1457083649089036e-04 -6.5767270606797816e-09 0.0000000000000000e+00  -2.1457083651402713e-04 -6.5767221736926992e-09 0.0000000000000000e+00  -2.1457083650083916e-04 -6.5767357363571456e-09 0.0000000000000000e+00  -2.1457083649590642e-04 -6.5767388356032658e-09 0.0000000000000000e+00  -2.1457083649970720e-04 -6.5767161552322297e-09 0.0000000000000000e+00  -2.1457083648171709e-04 -6.5767323145608791e-09 0.0000000000000000e+00  -2.1457083652451288e-04 -6.5767269935676671e-09 0.0000000000000000e+00  -2.1457083648299027e-04 -6.5767220362158638e-09 0.0000000000000000e+00  -2.1457083649254654e-04 -6.5767204198872650e-09 0.0000000000000000e+00  -2.1457083651366815e-04 -6.5767219783194678e-09 0.0000000000000000e+00  -2.1457083649796175e-04 -6.5767291009856399e-09 0.0000000000000000e+00  -2.1457083648293161e-04 -6.5767464206274544e-09 0.0000000000000000e+00  -2.1457083651747018e-04 -6.5767248422395064e-09 0.0000000000000000e+00  -2.1457083651025752e-04 -6.5767149713918775e-09 0.0000000000000000e+00  -2.1457083648176122e-04 -6.5767113328635968e-09 0.0000000000000000e+00  -2.1457083651153460e-04 -6.5767239189329363e-09 0.0000000000000000e+00  -2.1457083650204935e-04 -6.5767223842447611e-09 0.0000000000000000e+00  -2.1457083649602211e-04 -6.5767428167936431e-09 0.0000000000000000e+00  -2.1457083650595080e-04 -6.5767301753757827e-09 0.0000000000000000e+00  -2.1457083650491316e-04 -6.5767247479139174e-09 0.0000000000000000e+00  -2.1457083651354216e-04 -6.5767344210030700e-09 0.0000000000000000e+00  -2.1457083649897461e-04 -6.5767440904059352e-09 0.0000000000000000e+00  -2.1457083650729656e-04 -6.5767244533903972e-09 0.0000000000000000e+00  -2.1457083649359257e-04 -6.5767223849494925e-09 0.0000000000000000e+00  -2.1457083650837627e-04 1.6319625374241378e-09 0.0000000000000000e+00  -6.0131038031868700e-04 -1.1512459040111458e-08 0.0000000000000000e+00  -6.0131038031896954e-04 -1.1512459989330460e-08 0.0000000000000000e+00  -6.0131038032104134e-04 -1.1512467093673616e-08 0.0000000000000000e+00  -6.0131038030805455e-04 -1.1512473717064688e-08 0.