<?xml version="1.0"?>
<VTKFile type="UnstructuredGrid"  version="0.1"  >
<UnstructuredGrid>
<Piece  NumberOfPoints="961" NumberOfCells="1800">
<Points>
<DataArray  type="Float64"  NumberOfComponents="3"  format="ascii">0 0 0  0.03333333333333333 0 0  0.06666666666666667 0 0  0.1 0 0  0.1333333333333333 0 0  0.1666666666666667 0 0  0.2 0 0  0.2333333333333333 0 0  0.2666666666666667 0 0  0.3 0 0  0.3333333333333333 0 0  0.3666666666666666 0 0  0.4 0 0  0.4333333333333333 0 0  0.4666666666666667 0 0  0.5 0 0  0.5333333333333333 0 0  0.5666666666666667 0 0  0.6 0 0  0.6333333333333333 0 0  0.6666666666666666 0 0  0.7 0 0  0.7333333333333333 0 0  0.7666666666666667 0 0  0.8 0 0  0.8333333333333334 0 0  0.8666666666666667 0 0  0.9 0 0  0.9333333333333333 0 0  0.9666666666666667 0 0  1 0 0  0 0.03333333333333333 0  0.03333333333333333 0.03333333333333333 0  0.06666666666666667 0.03333333333333333 0  0.1 0.03333333333333333 0  0.1333333333333333 0.03333333333333333 0  0.1666666666666667 0.03333333333333333 0  0.2 0.03333333333333333 0  0.2333333333333333 0.03333333333333333 0  0.2666666666666667 0.03333333333333333 0  0.3 0.03333333333333333 0  0.3333333333333333 0.03333333333333333 0  0.3666666666666666 0.03333333333333333 0  0.4 0.03333333333333333 0  0.4333333333333333 0.03333333333333333 0  0.4666666666666667 0.03333333333333333 0  0.5 0.03333333333333333 0  0.5333333333333333 0.03333333333333333 0  0.5666666666666667 0.03333333333333333 0  0.6 0.03333333333333333 0  0.6333333333333333 0.03333333333333333 0  0.6666666666666666 0.03333333333333333 0  0.7 0.03333333333333333 0  0.7333333333333333 0.03333333333333333 0  0.7666666666666667 0.03333333333333333 0  0.8 0.03333333333333333 0  0.8333333333333334 0.03333333333333333 0  0.8666666666666667 0.03333333333333333 0  0.9 0.03333333333333333 0  0.9333333333333333 0.03333333333333333 0  0.9666666666666667 0.03333333333333333 0  1 0.03333333333333333 0  0 0.06666666666666667 0  0.03333333333333333 0.06666666666666667 0  0.06666666666666667 0.06666666666666667 0  0.1 0.06666666666666667 0  0.1333333333333333 0.06666666666666667 0  0.1666666666666667 0.06666666666666667 0  0.2 0.06666666666666667 0  0.2333333333333333 0.06666666666666667 0  0.2666666666666667 0.06666666666666667 0  0.3 0.06666666666666667 0  0.3333333333333333 0.06666666666666667 0  0.3666666666666666 0.06666666666666667 0  0.4 0.06666666666666667 0  0.4333333333333333 0.06666666666666667 0  0.4666666666666667 0.06666666666666667 0  0.5 0.06666666666666667 0  0.5333333333333333 0.06666666666666667 0  0.5666666666666667 0.06666666666666667 0  0.6 0.06666666666666667 0  0.6333333333333333 0.06666666666666667 0  0.6666666666666666 0.06666666666666667 0  0.7 0.06666666666666667 0  0.7333333333333333 0.06666666666666667 0  0.7666666666666667 0.06666666666666667 0  0.8 0.06666666666666667 0  0.8333333333333334 0.06666666666666667 0  0.8666666666666667 0.06666666666666667 0  0.9 0.06666666666666667 0  0.9333333333333333 0.06666666666666667 0  0.9666666666666667 0.06666666666666667 0  1 0.06666666666666667 0  0 0.1 0  0.03333333333333333 0.1 0  0.06666666666666667 0.1 0  0.1 0.1 0  0.1333333333333333 0.1 0  0.1666666666666667 0.1 0  0.2 0.1 0  0.2333333333333333 0.1 0  0.2666666666666667 0.1 0  0.3 0.1 0  0.3333333333333333 0.1 0  0.3666666666666666 0.1 0  0.4 0.1 0  0.4333333333333333 0.1 0  0.4666666666666667 0.1 0  0.5 0.1 0  0.5333333333333333 0.1 0  0.5666666666666667 0.1 0  0.6 0.1 0  0.6333333333333333 0.1 0  0.6666666666666666 0.1 0  0.7 0.1 0  0.7333333333333333 0.1 0  0.7666666666666667 0.1 0  0.8 0.1 0  0.8333333333333334 0.1 0  0.8666666666666667 0.1 0  0.9 0.1 0  0.9333333333333333 0.1 0  0.9666666666666667 0.1 0  1 0.1 0  0 0.1333333333333333 0  0.03333333333333333 0.1333333333333333 0  0.06666666666666667 0.1333333333333333 0  0.1 0.1333333333333333 0  0.1333333333333333 0.1333333333333333 0  0.1666666666666667 0.1333333333333333 0  0.2 0.1333333333333333 0  0.2333333333333333 0.1333333333333333 0  0.2666666666666667 0.1333333333333333 0  0.3 0.1333333333333333 0  0.3333333333333333 0.1333333333333333 0  0.3666666666666666 0.1333333333333333 0  0.4 0.1333333333333333 0  0.4333333333333333 0.1333333333333333 0  0.4666666666666667 0.1333333333333333 0  0.5 0.1333333333333333 0  0.5333333333333333 0.1333333333333333 0  0.5666666666666667 0.1333333333333333 0  0.6 0.1333333333333333 0  0.6333333333333333 0.1333333333333333 0  0.6666666666666666 0.1333333333333333 0  0.7 0.1333333333333333 0  0.7333333333333333 0.1333333333333333 0  0.7666666666666667 0.1333333333333333 0  0.8 0.1333333333333333 0  0.8333333333333334 0.1333333333333333 0  0.8666666666666667 0.1333333333333333 0  0.9 0.1333333333333333 0  0.9333333333333333 0.1333333333333333 0  0.9666666666666667 0.1333333333333333 0  1 0.1333333333333333 0  0 0.1666666666666667 0  0.03333333333333333 0.1666666666666667 0  0.06666666666666667 0.1666666666666667 0  0.1 0.1666666666666667 0  0.1333333333333333 0.1666666666666667 0  0.1666666666666667 0.1666666666666667 0  0.2 0.1666666666666667 0  0.2333333333333333 0.1666666666666667 0  0.2666666666666667 0.1666666666666667 0  0.3 0.1666666666666667 0  0.3333333333333333 0.1666666666666667 0  0.3666666666666666 0.1666666666666667 0  0.4 0.1666666666666667 0  0.4333333333333333 0.1666666666666667 0  0.4666666666666667 0.1666666666666667 0  0.5 0.1666666666666667 0  0.5333333333333333 0.1666666666666667 0  0.5666666666666667 0.1666666666666667 0  0.6 0.1666666666666667 0  0.6333333333333333 0.1666666666666667 0  0.6666666666666666 0.1666666666666667 0  0.7 0.1666666666666667 0  0.7333333333333333 0.1666666666666667 0  0.7666666666666667 0.1666666666666667 0  0.8 0.1666666666666667 0  0.8333333333333334 0.1666666666666667 0  0.8666666666666667 0.1666666666666667 0  0.9 0.1666666666666667 0  0.9333333333333333 0.1666666666666667 0  0.9666666666666667 0.1666666666666667 0  1 0.1666666666666667 0  0 0.2 0  0.03333333333333333 0.2 0  0.06666666666666667 0.2 0  0.1 0.2 0  0.1333333333333333 0.2 0  0.1666666666666667 0.2 0  0.2 0.2 0  0.2333333333333333 0.2 0  0.2666666666666667 0.2 0  0.3 0.2 0  0.3333333333333333 0.2 0  0.3666666666666666 0.2 0  0.4 0.2 0  0.4333333333333333 0.2 0  0.4666666666666667 0.2 0  0.5 0.2 0  0.5333333333333333 0.2 0  0.5666666666666667 0.2 0  0.6 0.2 0  0.6333333333333333 0.2 0  0.6666666666666666 0.2 0  0.7 0.2 0  0.7333333333333333 0.2 0  0.7666666666666667 0.2 0  0.8 0.2 0  0.8333333333333334 0.2 0  0.8666666666666667 0.2 0  0.9 0.2 0  0.9333333333333333 0.2 0  0.9666666666666667 0.2 0  1 0.2 0  0 0.2333333333333333 0  0.03333333333333333 0.2333333333333333 0  0.06666666666666667 0.2333333333333333 0  0.1 0.2333333333333333 0  0.1333333333333333 0.2333333333333333 0  0.1666666666666667 0.2333333333333333 0  0.2 0.2333333333333333 0  0.2333333333333333 0.2333333333333333 0  0.2666666666666667 0.2333333333333333 0  0.3 0.2333333333333333 0  0.3333333333333333 0.2333333333333333 0  0.3666666666666666 0.2333333333333333 0  0.4 0.2333333333333333 0  0.4333333333333333 0.2333333333333333 0  0.4666666666666667 0.2333333333333333 0  0.5 0.2333333333333333 0  0.5333333333333333 0.2333333333333333 0  0.5666666666666667 0.2333333333333333 0  0.6 0.2333333333333333 0  0.6333333333333333 0.2333333333333333 0  0.6666666666666666 0.2333333333333333 0  0.7 0.2333333333333333 0  0.7333333333333333 0.2333333333333333 0  0.7666666666666667 0.2333333333333333 0  0.8 0.2333333333333333 0  0.8333333333333334 0.2333333333333333 0  0.8666666666666667 0.2333333333333333 0  0.9 0.2333333333333333 0  0.9333333333333333 0.2333333333333333 0  0.9666666666666667 0.2333333333333333 0  1 0.2333333333333333 0  0 0.2666666666666667 0  0.03333333333333333 0.2666666666666667 0  0.06666666666666667 0.2666666666666667 0  0.1 0.2666666666666667 0  0.1333333333333333 0.2666666666666667 0  0.1666666666666667 0.2666666666666667 0  0.2 0.2666666666666667 0  0.2333333333333333 0.2666666666666667 0  0.2666666666666667 0.2666666666666667 0  0.3 0.2666666666666667 0  0.3333333333333333 0.2666666666666667 0  0.3666666666666666 0.2666666666666667 0  0.4 0.2666666666666667 0  0.4333333333333333 0.2666666666666667 0  0.4666666666666667 0.2666666666666667 0  0.5 0.2666666666666667 0  0.5333333333333333 0.2666666666666667 0  0.5666666666666667 0.2666666666666667 0  0.6 0.2666666666666667 0  0.6333333333333333 0.2666666666666667 0  0.6666666666666666 0.2666666666666667 0  0.7 0.2666666666666667 0  0.7333333333333333 0.2666666666666667 0  0.7666666666666667 0.2666666666666667 0  0.8 0.2666666666666667 0  0.8333333333333334 0.2666666666666667 0  0.8666666666666667 0.2666666666666667 0  0.9 0.2666666666666667 0  0.9333333333333333 0.2666666666666667 0  0.9666666666666667 0.2666666666666667 0  1 0.2666666666666667 0  0 0.3 0  0.03333333333333333 0.3 0  0.06666666666666667 0.3 0  0.1 0.3 0  0.1333333333333333 0.3 0  0.1666666666666667 0.3 0  0.2 0.3 0  0.2333333333333333 0.3 0  0.2666666666666667 0.3 0  0.3 0.3 0  0.3333333333333333 0.3 0  0.3666666666666666 0.3 0  0.4 0.3 0  0.4333333333333333 0.3 0  0.4666666666666667 0.3 0  0.5 0.3 0  0.5333333333333333 0.3 0  0.5666666666666667 0.3 0  0.6 0.3 0  0.6333333333333333 0.3 0  0.6666666666666666 0.3 0  0.7 0.3 0  0.7333333333333333 0.3 0  0.7666666666666667 0.3 0  0.8 0.3 0  0.8333333333333334 0.3 0  0.8666666666666667 0.3 0  0.9 0.3 0  0.9333333333333333 0.3 0  0.9666666666666667 0.3 0  1 0.3 0  0 0.3333333333333333 0  0.03333333333333333 0.3333333333333333 0  0.06666666666666667 0.3333333333333333 0  0.1 0.3333333333333333 0  0.1333333333333333 0.3333333333333333 0  0.1666666666666667 0.3333333333333333 0  0.2 0.3333333333333333 0  0.2333333333333333 0.3333333333333333 0  0.2666666666666667 0.3333333333333333 0  0.3 0.3333333333333333 0  0.3333333333333333 0.3333333333333333 0  0.3666666666666666 0.3333333333333333 0  0.4 0.3333333333333333 0  0.4333333333333333 0.3333333333333333 0  0.4666666666666667 0.3333333333333333 0  0.5 0.3333333333333333 0  0.5333333333333333 0.33333333333333
[...]
<PointData  Vectors="u_f"> 
<DataArray  type="Float64"  Name="u_f"  NumberOfComponents="3" format="ascii">2.7082552406518311e-06 -2.7850964506100258e-09 0.0000000000000000e+00  2.7082552459749385e-06 -2.7851216270855135e-09 0.0000000000000000e+00  2.7082552322678583e-06 -2.7851209503265174e-09 0.0000000000000000e+00  2.7082552251726224e-06 -2.7851489426918875e-09 0.0000000000000000e+00  2.7082552283286807e-06 -2.7851064171384964e-09 0.0000000000000000e+00  2.7082552430613620e-06 -2.7851144488539800e-09 0.0000000000000000e+00  2.7082552464872240e-06 -2.7851032630859564e-09 0.0000000000000000e+00  2.7082552411557140e-06 -2.7851181195288552e-09 0.0000000000000000e+00  2.7082552443226686e-06 -2.7851128165333992e-09 0.0000000000000000e+00  2.7082552235268577e-06 -2.7851089196939509e-09 0.0000000000000000e+00  2.7082552559520379e-06 -2.7851024405017681e-09 0.0000000000000000e+00  2.7082552094491973e-06 -2.7852428432736422e-09 0.0000000000000000e+00  2.7082551665471547e-06 -2.7851418547743950e-09 0.0000000000000000e+00  2.7082552258444483e-06 -2.7851196908630638e-09 0.0000000000000000e+00  2.7082552499415463e-06 -2.7850878098439717e-09 0.0000000000000000e+00  2.7082552518413396e-06 -2.7851086942341091e-09 0.0000000000000000e+00  2.7082552331784797e-06 -2.7851252088558105e-09 0.0000000000000000e+00  2.7082552532738959e-06 -2.7851545755016444e-09 0.0000000000000000e+00  2.7082552290719013e-06 -2.7851333419441973e-09 0.0000000000000000e+00  2.7082552325842285e-06 -2.7851092192048010e-09 0.0000000000000000e+00  2.7082552419775393e-06 -2.7851403164541426e-09 0.0000000000000000e+00  2.7082552325656886e-06 -2.7851364935572824e-09 0.0000000000000000e+00  2.7082552712979981e-06 -2.7850187855763334e-09 0.0000000000000000e+00  2.7082553045355167e-06 -2.7850854756651146e-09 0.0000000000000000e+00  2.7082552472156994e-06 -2.7851297785511271e-09 0.0000000000000000e+00  2.7082552282084969e-06 -2.7851400531556450e-09 0.0000000000000000e+00  2.7082552365220508e-06 -2.7851369741841055e-09 0.0000000000000000e+00  2.7082552438561364e-06 -2.7851099708821672e-09 0.0000000000000000e+00  2.7082552422386694e-06 -2.7851039618542565e-09 0.0000000000000000e+00  2.7082552580508365e-06 -2.7850994183966325e-09 0.0000000000000000e+00  2.7082552406518853e-06 5.8965868316763617e-10 0.0000000000000000e+00  4.1704826042262655e-04 -7.3871969055077161e-09 0.0000000000000000e+00  4.1704826042977621e-04 -7.3871996814989585e-09 0.0000000000000000e+00  4.1704826042098084e-04 -7.3871905665028742e-09 0.0000000000000000e+00  4.1704826043714369e-04 -7.3871831708345950e-09 0.0000000000000000e+00  4.1704826043027538e-04 -7.3871941234449415e-09 0.0000000000000000e+00  4.1704826043104137e-04 -7.3871948077933527e-09 0.0000000000000000e+00  4.1704826043362307e-04 -7.3871898598198982e-09 0.0000000000000000e+00  4.1704826044995484e-04 -7.3871845493976573e-09 0.0000000000000000e+00  4.1704826043004759e-04 -7.3871908863425151e-09 0.0000000000000000e+00  4.1704826041986964e-04 -7.3871918690633642e-09 0.0000000000000000e+00  4.1704826043340959e-04 -7.3871802520539265e-09 0.0000000000000000e+00  4.1704826035082905e-04 -7.3872739801391155e-09 0.0000000000000000e+00  4.1704826038796612e-04 -7.3872017200158832e-09 0.0000000000000000e+00  4.1704826044366918e-04 -7.3871913636083114e-09 0.0000000000000000e+00  4.1704826042744355e-04 -7.3872316009530176e-09 0.0000000000000000e+00  4.1704826042927487e-04 -7.3871925102605290e-09 0.0000000000000000e+00  4.1704826042376214e-04 -7.3871906802356821e-09 0.0000000000000000e+00  4.1704826042278083e-04 -7.3871759225093911e-09 0.0000000000000000e+00  4.1704826043528461e-04 -7.3871915315512279e-09 0.0000000000000000e+00  4.1704826042545794e-04 -7.3872108718748414e-09 0.0000000000000000e+00  4.1704826043314862e-04 -7.3871820313381117e-09 0.0000000000000000e+00  4.1704826042870003e-04 -7.3871884011342953e-09 0.0000000000000000e+00  4.1704826050020121e-04 -7.3870883858691283e-09 0.0000000000000000e+00  4.1704826047160397e-04 -7.3871859184197405e-09 0.0000000000000000e+00  4.1704826043990981e-04 -7.3871832273215282e-09 0.0000000000000000e+00  4.1704826042098994e-04 -7.3871941791729331e-09 0.0000000000000000e+00  4.1704826043991274e-04 -7.3871996356372066e-09 0.0000000000000000e+00  4.1704826041226786e-04 -7.3872011026711662e-09 0.0000000000000000e+00  4.1704826042808724e-04 -7.3872050049316254e-09 0.0000000000000000e+00  4.1704826043541721e-04 -7.3872139287828667e-09 0.0000000000000000e+00  4.1704826042262676e-04 2.0541532926393765e-09 0.0000000000000000e+00  7.5927676391092098e-04 -1.0967221938224490e-08 0.0000000000000000e+00  7.5927676392681875e-04 -1.0967233640777480e-08 0.0000000000000000e+00  7.5927676390959359e-04 -1.0967242489818771e-08 0.0000000000000000e+00  7.5927676389075330e-04 -1.0967239945196272e-08 0.0000000000000000e+00  7.5927676392416365e-04 -1.0967256961857789e-08 0.0000000000000000e+00  7.5927676388559738e-04 -1.0967254968552095e-08 0.0000000000000000e+00  7.5927676391838138e-04 -1.0967232142410077e-08 0.0000000000000000e+00  7.5927676391255563e-04 -1.0967251006768937e-08 0.0000000000000000e+00  7.5927676390780195e-04 -1.0967249718411495e-08 0.0000000000000000e+00  7.5927676390916989e-04 -1.0967236961688734e-08 0.0000000000000000e+00  7.5927676391922630e-04 -1.0967233846992733e-08 0.0000000000000000e+00  7.5927676382469167e-04 -1.0967377957302356e-08 0.0000000000000000e+00  7.5927676384259630e-04 -1.0967275983209124e-08 0.0000000000000000e+00  7.5927676391101899e-04 -1.0967247993445839e-08 0.0000000000000000e+00  7.5927676390404161e-04 -1.0967250317650036e-08 0.0000000000000000e+00  7.5927676389251600e-04 -1.0967237919039252e-08 0.0000000000000000e+00  7.5927676392105806e-04 -1.0967246821531711e-08 0.0000000000000000e+00  7.5927676389824081e-04 -1.0967252439542108e-08 0.0000000000000000e+00  7.5927676392197312e-04 -1.0967268318441865e-08 0.0000000000000000e+00  7.5927676390254129e-04 -1.0967257568902586e-08 0.0000000000000000e+00  7.5927676391231147e-04 -1.0967246086876319e-08 0.0000000000000000e+00  7.5927676391110920e-04 -1.0967256601794248e-08 0.0000000000000000e+00  7.5927676395848710e-04 -1.0967142940543698e-08 0.0000000000000000e+00  7.5927676395885443e-04 -1.0967217233437583e-08 0.0000000000000000e+00  7.5927676390179428e-04 -1.0967259992744963e-08 0.0000000000000000e+00  7.5927676390048814e-04 -1.0967247753511898e-08 0.0000000000000000e+00  7.5927676391680386e-04 -1.0967247951378795e-08 0.0000000000000000e+00  7.5927676390842613e-04 -1.0967246226304718e-08 0.0000000000000000e+00  7.5927676389326800e-04 -1.0967237541845316e-08 0.0000000000000000e+00  7.5927676390761525e-04 -1.0967242903658740e-08 0.0000000000000000e+00  7.5927676391092142e-04 3.3036251904101550e-09 0.0000000000000000e+00  9.7021949421904116e-04 -1.2489527295624775e-08 0.0000000000000000e+00  9.7021949421751460e-04 -1.2489541223069042e-08 0.0000000000000000e+00  9.7021949420264303e-04 -1.2489525351650280e-08 0.0000000000000000e+00  9.7021949422312361e-04 -1.2489498625633047e-08 0.0000000000000000e+00  9.7021949422900324e-04 -1.2489499067987533e-08 0.0000000000000000e+00  9.7021949420938785e-04 -1.2489527167472078e-08 0.0000000000000000e+00  9.7021949421944339e-04 -1.2489539926796925e-08 0.0000000000000000e+00  9.7021949420738338e-04 -1.2489545257385326e-08 0.0000000000000000e+00  9.7021949422839847e-04 -1.2489537272236326e-08 0.0000000000000000e+00  9.7021949421863458e-04 -1.2489562041268637e-08 0.0000000000000000e+00  9.7021949420155514e-04 -1.2489548417834659e-08 0.0000000000000000e+00  9.7021949417911086e-04 -1.2489502286116422e-08 0.0000000000000000e+00  9.7021949422726461e-04 -1.2489549649054646e-08 0.0000000000000000e+00  9.7021949421557908e-04 -1.2489551650925537e-08 0.0000000000000000e+00  9.7021949420630482e-04 -1.2489565206054778e-08 0.0000000000000000e+00  9.7021949420682263e-04 -1.2489562798258594e-08 0.0000000000000000e+00  9.7021949420118933e-04 -1.2489534882437897e-08 0.0000000000000000e+00  9.7021949422769049e-04 -1.2489543674016473e-08 0.0000000000000000e+00  9.7021949421194917e-04 -1.2489511249432622e-08 0.0000000000000000e+00  9.7021949423217475e-04 -1.2489509681025759e-08 0.0000000000000000e+00  9.7021949421573195e-04 -1.2489529502193036e-08 0.0000000000000000e+00  9.7021949422130931e-04 -1.2489525423424463e-08 0.0000000000000000e+00  9.7021949424031927e-04 -1.2489560371380451e-08 0.0000000000000000e+00  9.7021949420049891e-04 -1.2489564147656618e-08 0.0000000000000000e+00  9.7021949419046874e-04 -1.2489530489901216e-08 0.0000000000000000e+00  9.7021949422475013e-04 -1.2489530219284353e-08 0.0000000000000000e+00  9.7021949421022312e-04 -1.2489557673234924e-08 0.0000000000000000e+00  9.7021949422279770e-04 -1.2489537274838411e-08 0.0000000000000000e+00  9.7021949421505498e-04 -1.2489539019536547e-08 0.0000000000000000e+00  9.7021949421115966e-04 -1.2489546981483621e-08 0.0000000000000000e+00  9.7021949421904159e-04 3.9956481854946404e-09 0.0000000000000000e+00  1.0134026115414313e-03 -1.1443527145739256e-08 0.0000000000000000e+00  1.0134026115172340e-03 -1.1443474365476457e-08 0.0000000000000000e+00  1.0134026115489803e-03 -1.1443500158646140e-08 0.0000000000000000e+00  1.0134026115378829e-03 -1.1443510272084005e-08 0.0000000000000000e+00  1.0134026115388940e-03 -1.1443520321445522e-08 0.0000000000000000e+00  1.0134026115280867e-03 -1.1443504367735814e-08 0.0000000000000000e+00  1.0134026115258339e-03 -1.1443502877499928e-08 0.0000000000000000e+00  1.0134026115335526e-03 -1.1443504812041864e-08 0.0000000000000000e+00  1.0134026115379263e-03 -1.1443513011212374e-08 0.0000000000000000e+00  1.0134026115342651e-03 -1.1443510205080311e-08 0.0000000000000000e+00  1.0134026115411507e-03 -1.1443511422747771e-08 0.0000000000000000e+00  1.0134026115231247e-03 -1.1443528403196936e-08 0.0000000000000000e+00  1.0134026115245385e-03 -1.1443492732945461e-08 0.0000000000000000e+00  1.0134026115457100e-03 -1.1443512414359078e-08 0.0000000000000000e+00  1.0134026115153744e-03 -1.1443507744591901e-08 0.0000000000000000e+00  1.0134026115462529e-03 -1.1443499382899486e-08 0.0000000000000000e+00  1.0134026115314609e-03 -1.1443490042606190e-08 0.0000000000000000e+00  1.0134026115542595e-03 -1.1443484710283065e-08 0.0000000000000000e+00  1.0134026115388524e-03 -1.1443497631912977e-08 0.0000000000000000e+00  1.0134026115382021e-03 -1.1443517608338005e-08 0.0000000000000000e+00  1.0134026115286268e-03 -1.1443491620879293e-08 0.0000000000000000e+00  1.0134026115527698e-03 -1.1443487577347290e-08 0.0000000000000000e+00  1.0134026115447762e-03 -1.1443503934813887e-08 0.0000000000000000e+00  1.0134026115229773e-03 -1.1443492041658156e-08 0.0000000000000000e+00  1.0134026115255880e-03 -1.1443510556578655e-08 0.0000000000000000e+00  1.0134026115389866e-03 -1.1443497727105928e-08 0.0000000000000000e+00  1.0134026115321370e-03 -1.1443503598169112e-08 0.0000000000000000e+00  1.0134026115240224e-03 -1.1443521892779730e-08 0.0000000000000000e+00  1.0134026115391349e-03 -1.1443509862472424e-08 0.0000000000000000e+00  1.0134026115387372e-03 -1.1443481683190600e-08 0.0000000000000000e+00  1.0134026115414315e-03 3.8974916151119972e-09 0.0000000000000000e+00  8.8135931654969137e-04 -8.0952462633678349e-09 0.0000000000000000e+00  8.8135931654118006e-04 -8.0952662884735405e-09 0.0000000000000000e+00  8.8135931655114041e-04 -8.0952522531511570e-09 0.0000000000000000e+00  8.8135931655717095e-04 -8.0952563498090657e-09 0.0000000000000000e+00  8.8135931654996025e-04 -8.0952287887393198e-09 0.0000000000000000e+00  8.8135931655450501e-04 -8.0952437888932166e-09 0.0000000000000000e+00  8.8135931655623019e-04 -8.0952277138612860e-09 0.0000000000000000e+00  8.8135931654199462e-04 -8.0952353694128260e-09 0.0000000000000000e+00  8.8135931656517323e-04 -8.0952409405856893e-09 0.0000000000000000e+00  8.8135931653820674e-04 -8.0952576609347529e-09 0.0000000000000000e+00  8.8135931655595329e-04 -8.0952452384715212e-09 0.0000000000000000e+00  8.8135931655155273e-04 -8.0952855342547245e-09 0.0000000000000000e+00  8.8135931652058444e-04 -8.0952708208723023e-09 0.0000000000000000e+00  8.8135931655345865e-04 -8.0952581070839469e-09 0.0000000000000000e+00  8.8135931654631234e-04 -8.0952417505931323e-09 0.0000000000000000e+00  8.8135931653902206e-04 -8.0952471135991785e-09 0.0000000000000000e+00  8.8135931655160032e-04 -8.0952440331639661e-09 0.0000000000000000e+00  8.8135931656946711e-04 -8.0952401479254810e-09 0.0000000000000000e+00  8.8135931654246831e-04 -8.0952231222650856e-09 0.0000000000000000e+00  8.8135931656301871e-04 -8.0952442045763295e-09 0.0000000000000000e+00  8.8135931654477386e-04 -8.0952619427743927e-09 0.0000000000000000e+00  8.8135931655332052e-04 -8.0952729580516247e-09 0.0000000000000000e+00  8.8135931654212602e-04 -8.0952561107424867e-09 0.0000000000000000e+00  8.8135931654494050e-04 -8.0952387436668272e-09 0.0000000000000000e+00  8.8135931655553934e-04 -8.0952552512954246e-09 0.0000000000000000e+00  8.8135931654564133e-04 -8.0952679022000540e-09 0.0000000000000000e+00  8.8135931653192954e-04 -8.0952452461693566e-09 0.0000000000000000e+00  8.8135931656290823e-04 -8.0952320616204179e-09 0.0000000000000000e+00  8.8135931656159634e-04 -8.0952703011057808e-09 0.0000000000000000e+00  8.8135931653842868e-04 -8.0952530594723127e-09 0.0000000000000000e+00  8.8135931654969159e-04 3.0011386807865650e-09 0.0000000000000000e+00  5.9692095758172769e-04 -3.3845859039689438e-09 0.0000000000000000e+00  5.9692095755647261e-04 -3.3845653347563780e-09 0.0000000000000000e+00  5.9692095761030434e-04 -3.3845431060639669e-09 0.0000000000000000e+00  5.9692095757672367e-04 -3.3845579522611552e-09 0.0000000000000000e+00  5.9692095757447623e-04 -3.3845792561833232e-09 0.0000000000000000e+00  5.9692095760361351e-04 -3.3845624435686547e-09 0.0000000000000000e+00  5.9692095757217338e-04 -3.3845771332612594e-09 0.0000000000000000e+00  5.9692095758367893e-04 -3.3845527125831061e-09 0.0000000000000000e+00  5.9692095758689641e-04 -3.3845485435547024e-09 0.0000000000000000e+00  5.9692095758770111e-04 -3.3845552144880393e-09 0.0000000000000000e+00  5.9692095758416195e-04 -3.3845688262668441e-09 0.0000000000000000e+00  5.9692095757048354e-04 -3.3845496977963352e-09 0.0000000000000000e+00  5.9692095759928808e-04 -3.3845514628774720e-09 0.0000000000000000e+00  5.9692095757938181e-04 -3.3845626896283378e-09 0.0000000000000000e+00  5.9692095756741536e-04 -3.3845648284881735e-09 0.0000000000000000e+00  5.9692095759378532e-04 -3.3845462129537124e-09 0.0000000000000000e+00  5.9692095758950370e-04 -3.3845534852939944e-09 0.0000000000000000e+00  5.9692095760341597e-04 -3.3845675327052321e-09 0.0000000000000000e+00  5.9692095757376727e-04 -3.3845859740084042e-09 0.0000000000000000e+00  5.9692095757596809e-04 -3.3845731099496276e-09 0.0000000000000000e+00  5.9692095757496054e-04 -3.3845666112418057e-09 0.0000000000000000e+00  5.9692095758647758e-04 -3.3845485154738661e-09 0.0000000000000000e+00  5.9692095757900667e-04 -3.3845482971155486e-09 0.0000000000000000e+00  5.9692095760046130e-04 -3.3845537316247280e-09 0.0000000000000000e+00  5.9692095757478273e-04 -3.3845467367317819e-09 0.0000000000000000e+00  5.9692095758002322e-04 -3.3845427614503064e-09 0.0000000000000000e+00  5.9692095758989326e-04 -3.3845507995625829e-09 0.0000000000000000e+00  5.9692095758595879e-04 -3.3845630415603629e-09 0.0000000000000000e+00  5.9692095756684182e-04 -3.3845688911021340e-09 0.0000000000000000e+00  5.9692095758048271e-04 -3.3845751010327073e-09 0.0000000000000000e+00  5.9692095758172780e-04 1.5389316423969891e-09 0.0000000000000000e+00  2.0926937315810971e-04 1.4763269127430079e-09 0.0000000000000000e+00  2.0926937316663650e-04 1.4763181297838390e-09 0.0000000000000000e+00  2.0926937314649709e-04 1.4763177666980839e-09 0.0000000000000000e+00  2.0926937315584720e-04 1.4763131029211238e-09 0.0000000000000000e+00  2.0926937313998009e-04 1.4763274440291775e-09 0.0000000000000000e+00  2.0926937315247899e-04 1.4763306346328832e-09 0.0000000000000000e+00  2.0926937316406401e-04 1.4763299328965796e-09 0.0000000000000000e+00  2.0926937316674955e-04 1.4763028678357751e-09 0.0000000000000000e+00  2.0926937313764523e-04 1.4763060636707563e-09 0.0000000000000000e+00  2.0926937316142249e-04 1.4763052804973170e-09 0.0000000000000000e+00  2.0926937315746282e-04 1.4763199668424475e-09 0.0000000000000000e+00  2.0926937314872128e-04 1.4763074138548268e-09 0.0000000000000000e+00  2.0926937314513761e-04 1.4763036846465868e-09 0.0000000000000000e+00  2.0926937316058009e-04 1.4763051565459036e-09 0.0000000000000000e+00  2.0926937314671957e-04 1.4763055191166627e-09 0.0000000000000000e+00  2.0926937313580876e-04 1.4763169346406792e-09 0.0000000000000000e+00  2.0926937317019526e-04 1.4763233373830563e-09 0.0000000000000000e+00  2.0926937316545651e-04 1.4762955890580427e-09 0.0000000000000000e+00  2.0926937314596049e-04 1.4763194312059167e-09 0.0000000000000000e+00  2.0926937315421729e-04 1.4763180426139843e-09 0.0000000000000000e+00  2.0926937316804019e-04 1.4763253026621242e-09 0.0000000000000000e+00  2.0926937314757094e-04 1.4763016086975821e-09 0.0000000000000000e+00  2.0926937314416958e-04 1.4763226512186063e-09 0.0000000000000000e+00  2.0926937316536752e-04 1.4762881533691508e-09 0.0000000000000000e+00  2.0926937313006942e-04 1.4763115036958143e-09 0.0000000000000000e+00  2.0926937317176979e-04 1.4763020551720367e-09 0.0000000000000000e+00  2.0926937314279720e-04 1.4763028402428298e-09 0.0000000000000000e+00  2.0926937317408621e-04 1.4762935683491386e-09 0.0000000000000000e+00  2.0926937312986665e-04 1.4763104835835428e-09 0.0000000000000000e+00  2.0926937314742132e-04 1.4763185031559621e-09 0.0000000000000000e+00  2.0926937315810971e-04 -1.0925272073244902e-10 0.0000000000000000e+00  -2.1456700299786534e-04 5.4749545061959747e-09 0.0000000000000000e+00  -2.1456700300125770e-04 5.4749413656114340e-09 0.0000000000000000e+00  -2.1456700299199053e-04 5.4749878593447765e-09 0.0000000000000000e+00  -2.1456700298080753e-04 5.4749732167607562e-09 0.0000000000000000e+00  -2.1456700300267296e-04 5.4749428920596727e-09 0.0000000000000000e+00  -2.1456700299757114e-04 5.4749646156765017e-09 0.0000000000000000e+00  -2.1456700297937519e-04 5.4749554443019044e-09 0.0000000000000000e+00  -2.1456700300167983e-04 5.4749540228586462e-09 0.0000000000000000e+00  -2.1456700300781560e-04 5.4749703982145785e-09 0.0000000000000000e+00  -2.1456700298641795e-04 5.4749653935915604e-09 0.0000000000000000e+00  -2.1456700299157561e-04 5.4749621923220158e-09 0.0000000000000000e+00  -2.1456700299630772e-04 5.4749642265563420e-09 0.0000000000000000e+00  -2.1456700298676224e-04 5.4749349091332868e-09 0.0000000000000000e+00  -2.1456700300256253e-04 5.4749515117379945e-09 0.0000000000000000e+00  -2.1456700298449040e-04 5.4749645568043237e-09 0.0000000000000000e+00  -2.1456700301712852e-04 5.4749449091636045e-09 0.0000000000000000e+00  -2.1456700297773181e-04 5.4749609084640133e-09 0.0000000000000000e+00  -2.1456700297154037e-04 5.4749685531193214e-09 0.0000000000000000e+00  -2.1456700300660043e-04 5.4749472352651554e-09 0.0000000000000000e+00  -2.1456700299204968e-04 5.4749631675618700e-09 0.0000000000000000e+00  -2.1456700297957365e-04 5.4749549659519059e-09 0.0000000000000000e+00  -2.1456700299406803e-04 5.4749375378356641e-09 0.0000000000000000e+00  -2.1456700302374410e-04 5.4749609035851035e-09 0.0000000000000000e+00  -2.1456700298822738e-04 5.4749757224603970e-09 0.0000000000000000e+00  -2.1456700300401049e-04 5.4749418150674446e-09 0.0000000000000000e+00  -2.1456700299928380e-04 5.4749657808143663e-09 0.0000000000000000e+00  -2.1456700298092977e-04 5.4749752131564265e-09 0.0000000000000000e+00  -2.1456700297950416e-04 5.4749755190098594e-09 0.0000000000000000e+00  -2.1456700299888357e-04 5.4749588370957628e-09 0.0000000000000000e+00  -2.1456700298758835e-04 5.4749579899001852e-09 0.0000000000000000e+00  -2.1456700299786550e-04 -1.5643184425193813e-09 0.0000000000000000e+00  -6.0130293518029839e-04 8.0872201012761186e-09 0.0000000000000000e+00  -6.0130293520720222e-04 8.0871889046596479e-09 0.0