<?xml version="1.0"?>
<VTKFile type="UnstructuredGrid"  version="0.1"  >
<UnstructuredGrid>
<Piece  NumberOfPoints="961" NumberOfCells="1800">
<Points>
<DataArray  type="Float64"  NumberOfComponents="3"  format="ascii">0 0 0  0.03333333333333333 0 0  0.06666666666666667 0 0  0.1 0 0  0.1333333333333333 0 0  0.1666666666666667 0 0  0.2 0 0  0.2333333333333333 0 0  0.2666666666666667 0 0  0.3 0 0  0.3333333333333333 0 0  0.3666666666666666 0 0  0.4 0 0  0.4333333333333333 0 0  0.4666666666666667 0 0  0.5 0 0  0.5333333333333333 0 0  0.5666666666666667 0 0  0.6 0 0  0.6333333333333333 0 0  0.6666666666666666 0 0  0.7 0 0  0.7333333333333333 0 0  0.7666666666666667 0 0  0.8 0 0  0.8333333333333334 0 0  0.8666666666666667 0 0  0.9 0 0  0.9333333333333333 0 0  0.9666666666666667 0 0  1 0 0  0 0.03333333333333333 0  0.03333333333333333 0.03333333333333333 0  0.06666666666666667 0.03333333333333333 0  0.1 0.03333333333333333 0  0.1333333333333333 0.03333333333333333 0  0.1666666666666667 0.03333333333333333 0  0.2 0.03333333333333333 0  0.2333333333333333 0.03333333333333333 0  0.2666666666666667 0.03333333333333333 0  0.3 0.03333333333333333 0  0.3333333333333333 0.03333333333333333 0  0.3666666666666666 0.03333333333333333 0  0.4 0.03333333333333333 0  0.4333333333333333 0.03333333333333333 0  0.4666666666666667 0.03333333333333333 0  0.5 0.03333333333333333 0  0.5333333333333333 0.03333333333333333 0  0.5666666666666667 0.03333333333333333 0  0.6 0.03333333333333333 0  0.6333333333333333 0.03333333333333333 0  0.6666666666666666 0.03333333333333333 0  0.7 0.03333333333333333 0  0.7333333333333333 0.03333333333333333 0  0.7666666666666667 0.03333333333333333 0  0.8 0.03333333333333333 0  0.8333333333333334 0.03333333333333333 0  0.8666666666666667 0.03333333333333333 0  0.9 0.03333333333333333 0  0.9333333333333333 0.03333333333333333 0  0.9666666666666667 0.03333333333333333 0  1 0.03333333333333333 0  0 0.06666666666666667 0  0.03333333333333333 0.06666666666666667 0  0.06666666666666667 0.06666666666666667 0  0.1 0.06666666666666667 0  0.1333333333333333 0.06666666666666667 0  0.1666666666666667 0.06666666666666667 0  0.2 0.06666666666666667 0  0.2333333333333333 0.06666666666666667 0  0.2666666666666667 0.06666666666666667 0  0.3 0.06666666666666667 0  0.3333333333333333 0.06666666666666667 0  0.3666666666666666 0.06666666666666667 0  0.4 0.06666666666666667 0  0.4333333333333333 0.06666666666666667 0  0.4666666666666667 0.06666666666666667 0  0.5 0.06666666666666667 0  0.5333333333333333 0.06666666666666667 0  0.5666666666666667 0.06666666666666667 0  0.6 0.06666666666666667 0  0.6333333333333333 0.06666666666666667 0  0.6666666666666666 0.06666666666666667 0  0.7 0.06666666666666667 0  0.7333333333333333 0.06666666666666667 0  0.7666666666666667 0.06666666666666667 0  0.8 0.06666666666666667 0  0.8333333333333334 0.06666666666666667 0  0.8666666666666667 0.06666666666666667 0  0.9 0.06666666666666667 0  0.9333333333333333 0.06666666666666667 0  0.9666666666666667 0.06666666666666667 0  1 0.06666666666666667 0  0 0.1 0  0.03333333333333333 0.1 0  0.06666666666666667 0.1 0  0.1 0.1 0  0.1333333333333333 0.1 0  0.1666666666666667 0.1 0  0.2 0.1 0  0.2333333333333333 0.1 0  0.2666666666666667 0.1 0  0.3 0.1 0  0.3333333333333333 0.1 0  0.3666666666666666 0.1 0  0.4 0.1 0  0.4333333333333333 0.1 0  0.4666666666666667 0.1 0  0.5 0.1 0  0.5333333333333333 0.1 0  0.5666666666666667 0.1 0  0.6 0.1 0  0.6333333333333333 0.1 0  0.6666666666666666 0.1 0  0.7 0.1 0  0.7333333333333333 0.1 0  0.7666666666666667 0.1 0  0.8 0.1 0  0.8333333333333334 0.1 0  0.8666666666666667 0.1 0  0.9 0.1 0  0.9333333333333333 0.1 0  0.9666666666666667 0.1 0  1 0.1 0  0 0.1333333333333333 0  0.03333333333333333 0.1333333333333333 0  0.06666666666666667 0.1333333333333333 0  0.1 0.1333333333333333 0  0.1333333333333333 0.1333333333333333 0  0.1666666666666667 0.1333333333333333 0  0.2 0.1333333333333333 0  0.2333333333333333 0.1333333333333333 0  0.2666666666666667 0.1333333333333333 0  0.3 0.1333333333333333 0  0.3333333333333333 0.1333333333333333 0  0.3666666666666666 0.1333333333333333 0  0.4 0.1333333333333333 0  0.4333333333333333 0.1333333333333333 0  0.4666666666666667 0.1333333333333333 0  0.5 0.1333333333333333 0  0.5333333333333333 0.1333333333333333 0  0.5666666666666667 0.1333333333333333 0  0.6 0.1333333333333333 0  0.6333333333333333 0.1333333333333333 0  0.6666666666666666 0.1333333333333333 0  0.7 0.1333333333333333 0  0.7333333333333333 0.1333333333333333 0  0.7666666666666667 0.1333333333333333 0  0.8 0.1333333333333333 0  0.8333333333333334 0.1333333333333333 0  0.8666666666666667 0.1333333333333333 0  0.9 0.1333333333333333 0  0.9333333333333333 0.1333333333333333 0  0.9666666666666667 0.1333333333333333 0  1 0.1333333333333333 0  0 0.1666666666666667 0  0.03333333333333333 0.1666666666666667 0  0.06666666666666667 0.1666666666666667 0  0.1 0.1666666666666667 0  0.1333333333333333 0.1666666666666667 0  0.1666666666666667 0.1666666666666667 0  0.2 0.1666666666666667 0  0.2333333333333333 0.1666666666666667 0  0.2666666666666667 0.1666666666666667 0  0.3 0.1666666666666667 0  0.3333333333333333 0.1666666666666667 0  0.3666666666666666 0.1666666666666667 0  0.4 0.1666666666666667 0  0.4333333333333333 0.1666666666666667 0  0.4666666666666667 0.1666666666666667 0  0.5 0.1666666666666667 0  0.5333333333333333 0.1666666666666667 0  0.5666666666666667 0.1666666666666667 0  0.6 0.1666666666666667 0  0.6333333333333333 0.1666666666666667 0  0.6666666666666666 0.1666666666666667 0  0.7 0.1666666666666667 0  0.7333333333333333 0.1666666666666667 0  0.7666666666666667 0.1666666666666667 0  0.8 0.1666666666666667 0  0.8333333333333334 0.1666666666666667 0  0.8666666666666667 0.1666666666666667 0  0.9 0.1666666666666667 0  0.9333333333333333 0.1666666666666667 0  0.9666666666666667 0.1666666666666667 0  1 0.1666666666666667 0  0 0.2 0  0.03333333333333333 0.2 0  0.06666666666666667 0.2 0  0.1 0.2 0  0.1333333333333333 0.2 0  0.1666666666666667 0.2 0  0.2 0.2 0  0.2333333333333333 0.2 0  0.2666666666666667 0.2 0  0.3 0.2 0  0.3333333333333333 0.2 0  0.3666666666666666 0.2 0  0.4 0.2 0  0.4333333333333333 0.2 0  0.4666666666666667 0.2 0  0.5 0.2 0  0.5333333333333333 0.2 0  0.5666666666666667 0.2 0  0.6 0.2 0  0.6333333333333333 0.2 0  0.6666666666666666 0.2 0  0.7 0.2 0  0.7333333333333333 0.2 0  0.7666666666666667 0.2 0  0.8 0.2 0  0.8333333333333334 0.2 0  0.8666666666666667 0.2 0  0.9 0.2 0  0.9333333333333333 0.2 0  0.9666666666666667 0.2 0  1 0.2 0  0 0.2333333333333333 0  0.03333333333333333 0.2333333333333333 0  0.06666666666666667 0.2333333333333333 0  0.1 0.2333333333333333 0  0.1333333333333333 0.2333333333333333 0  0.1666666666666667 0.2333333333333333 0  0.2 0.2333333333333333 0  0.2333333333333333 0.2333333333333333 0  0.2666666666666667 0.2333333333333333 0  0.3 0.2333333333333333 0  0.3333333333333333 0.2333333333333333 0  0.3666666666666666 0.2333333333333333 0  0.4 0.2333333333333333 0  0.4333333333333333 0.2333333333333333 0  0.4666666666666667 0.2333333333333333 0  0.5 0.2333333333333333 0  0.5333333333333333 0.2333333333333333 0  0.5666666666666667 0.2333333333333333 0  0.6 0.2333333333333333 0  0.6333333333333333 0.2333333333333333 0  0.6666666666666666 0.2333333333333333 0  0.7 0.2333333333333333 0  0.7333333333333333 0.2333333333333333 0  0.7666666666666667 0.2333333333333333 0  0.8 0.2333333333333333 0  0.8333333333333334 0.2333333333333333 0  0.8666666666666667 0.2333333333333333 0  0.9 0.2333333333333333 0  0.9333333333333333 0.2333333333333333 0  0.9666666666666667 0.2333333333333333 0  1 0.2333333333333333 0  0 0.2666666666666667 0  0.03333333333333333 0.2666666666666667 0  0.06666666666666667 0.2666666666666667 0  0.1 0.2666666666666667 0  0.1333333333333333 0.2666666666666667 0  0.1666666666666667 0.2666666666666667 0  0.2 0.2666666666666667 0  0.2333333333333333 0.2666666666666667 0  0.2666666666666667 0.2666666666666667 0  0.3 0.2666666666666667 0  0.3333333333333333 0.2666666666666667 0  0.3666666666666666 0.2666666666666667 0  0.4 0.2666666666666667 0  0.4333333333333333 0.2666666666666667 0  0.4666666666666667 0.2666666666666667 0  0.5 0.2666666666666667 0  0.5333333333333333 0.2666666666666667 0  0.5666666666666667 0.2666666666666667 0  0.6 0.2666666666666667 0  0.6333333333333333 0.2666666666666667 0  0.6666666666666666 0.2666666666666667 0  0.7 0.2666666666666667 0  0.7333333333333333 0.2666666666666667 0  0.7666666666666667 0.2666666666666667 0  0.8 0.2666666666666667 0  0.8333333333333334 0.2666666666666667 0  0.8666666666666667 0.2666666666666667 0  0.9 0.2666666666666667 0  0.9333333333333333 0.2666666666666667 0  0.9666666666666667 0.2666666666666667 0  1 0.2666666666666667 0  0 0.3 0  0.03333333333333333 0.3 0  0.06666666666666667 0.3 0  0.1 0.3 0  0.1333333333333333 0.3 0  0.1666666666666667 0.3 0  0.2 0.3 0  0.2333333333333333 0.3 0  0.2666666666666667 0.3 0  0.3 0.3 0  0.3333333333333333 0.3 0  0.3666666666666666 0.3 0  0.4 0.3 0  0.4333333333333333 0.3 0  0.4666666666666667 0.3 0  0.5 0.3 0  0.5333333333333333 0.3 0  0.5666666666666667 0.3 0  0.6 0.3 0  0.6333333333333333 0.3 0  0.6666666666666666 0.3 0  0.7 0.3 0  0.7333333333333333 0.3 0  0.7666666666666667 0.3 0  0.8 0.3 0  0.8333333333333334 0.3 0  0.8666666666666667 0.3 0  0.9 0.3 0  0.9333333333333333 0.3 0  0.9666666666666667 0.3 0  1 0.3 0  0 0.3333333333333333 0  0.03333333333333333 0.3333333333333333 0  0.06666666666666667 0.3333333333333333 0  0.1 0.3333333333333333 0  0.1333333333333333 0.3333333333333333 0  0.1666666666666667 0.3333333333333333 0  0.2 0.3333333333333333 0  0.2333333333333333 0.3333333333333333 0  0.2666666666666667 0.3333333333333333 0  0.3 0.3333333333333333 0  0.3333333333333333 0.3333333333333333 0  0.3666666666666666 0.3333333333333333 0  0.4 0.3333333333333333 0  0.4333333333333333 0.3333333333333333 0  0.4666666666666667 0.3333333333333333 0  0.5 0.3333333333333333 0  0.5333333333333333 0.33333333333333
[...]
<PointData  Vectors="u_f"> 
<DataArray  type="Float64"  Name="u_f"  NumberOfComponents="3" format="ascii">2.7078748964421448e-06 -4.3026020372406715e-09 0.0000000000000000e+00  2.7078748930751549e-06 -4.3026176208579674e-09 0.0000000000000000e+00  2.7078748997800780e-06 -4.3026023096464673e-09 0.0000000000000000e+00  2.7078749036390246e-06 -4.3026011113862263e-09 0.0000000000000000e+00  2.7078749018854360e-06 -4.3026173500242647e-09 0.0000000000000000e+00  2.7078748954930342e-06 -4.3026260913500702e-09 0.0000000000000000e+00  2.7078748979294533e-06 -4.3026199878881503e-09 0.0000000000000000e+00  2.7078749014450331e-06 -4.3026208946064272e-09 0.0000000000000000e+00  2.7078748981325786e-06 -4.3026236349816283e-09 0.0000000000000000e+00  2.7078748893391569e-06 -4.3026243594455199e-09 0.0000000000000000e+00  2.7078749083274943e-06 -4.3026063430411793e-09 0.0000000000000000e+00  2.7078748931126141e-06 -4.3026462841818519e-09 0.0000000000000000e+00  2.7078748724258198e-06 -4.3026183206020495e-09 0.0000000000000000e+00  2.7078749089382795e-06 -4.3026121185861521e-09 0.0000000000000000e+00  2.7078748991099869e-06 -4.3025989005353663e-09 0.0000000000000000e+00  2.7078749061258049e-06 -4.3026093904624356e-09 0.0000000000000000e+00  2.7078748970651273e-06 -4.3026181332519141e-09 0.0000000000000000e+00  2.7078749052410959e-06 -4.3026033313985947e-09 0.0000000000000000e+00  2.7078749065943429e-06 -4.3026096005266065e-09 0.0000000000000000e+00  2.7078748924805243e-06 -4.3026091989923319e-09 0.0000000000000000e+00  2.7078749127102731e-06 -4.3026026166383124e-09 0.0000000000000000e+00  2.7078748963878805e-06 -4.3026253622241092e-09 0.0000000000000000e+00  2.7078749016171502e-06 -4.3025747110091161e-09 0.0000000000000000e+00  2.7078749271107548e-06 -4.3026099569580707e-09 0.0000000000000000e+00  2.7078749041171577e-06 -4.3026085256485727e-09 0.0000000000000000e+00  2.7078749012010334e-06 -4.3026068571156394e-09 0.0000000000000000e+00  2.7078748997989973e-06 -4.3026061630094085e-09 0.0000000000000000e+00  2.7078749157807879e-06 -4.3026188188471579e-09 0.0000000000000000e+00  2.7078749030968693e-06 -4.3026252472444688e-09 0.0000000000000000e+00  2.7078748996903061e-06 -4.3026130219434022e-09 0.0000000000000000e+00  2.7078748964421990e-06 9.7094316012254016e-10 0.0000000000000000e+00  4.1704744845920199e-04 -9.8470437847556630e-09 0.0000000000000000e+00  4.1704744847049439e-04 -9.8470411217382869e-09 0.0000000000000000e+00  4.1704744846699372e-04 -9.8470406992247003e-09 0.0000000000000000e+00  4.1704744845956552e-04 -9.8470514819405663e-09 0.0000000000000000e+00  4.1704744847116497e-04 -9.8470495497838748e-09 0.0000000000000000e+00  4.1704744845795028e-04 -9.8470635736137152e-09 0.0000000000000000e+00  4.1704744845510197e-04 -9.8470617933537480e-09 0.0000000000000000e+00  4.1704744846516087e-04 -9.8470608558441294e-09 0.0000000000000000e+00  4.1704744845868298e-04 -9.8470586361570217e-09 0.0000000000000000e+00  4.1704744845938782e-04 -9.8470589037381179e-09 0.0000000000000000e+00  4.1704744846215167e-04 -9.8470465141262120e-09 0.0000000000000000e+00  4.1704744844818335e-04 -9.8470754752262232e-09 0.0000000000000000e+00  4.1704744844472410e-04 -9.8470712480303729e-09 0.0000000000000000e+00  4.1704744845996017e-04 -9.8470614739477880e-09 0.0000000000000000e+00  4.1704744845758837e-04 -9.8470658640992248e-09 0.0000000000000000e+00  4.1704744846178315e-04 -9.8470548325589602e-09 0.0000000000000000e+00  4.1704744846809483e-04 -9.8470399474389139e-09 0.0000000000000000e+00  4.1704744846678111e-04 -9.8470599804592954e-09 0.0000000000000000e+00  4.1704744845828389e-04 -9.8470609702274586e-09 0.0000000000000000e+00  4.1704744846071716e-04 -9.8470499887773344e-09 0.0000000000000000e+00  4.1704744846623597e-04 -9.8470593875091272e-09 0.0000000000000000e+00  4.1704744846223060e-04 -9.8470462633502495e-09 0.0000000000000000e+00  4.1704744848157114e-04 -9.8470084048535300e-09 0.0000000000000000e+00  4.1704744849891610e-04 -9.8470446280481128e-09 0.0000000000000000e+00  4.1704744845184785e-04 -9.8470578208369880e-09 0.0000000000000000e+00  4.1704744847545689e-04 -9.8470493351118446e-09 0.0000000000000000e+00  4.1704744846321148e-04 -9.8470704476723292e-09 0.0000000000000000e+00  4.1704744844855328e-04 -9.8470500732366836e-09 0.0000000000000000e+00  4.1704744846944022e-04 -9.8470490831432597e-09 0.0000000000000000e+00  4.1704744846396348e-04 -9.8470504465274916e-09 0.0000000000000000e+00  4.1704744845920242e-04 3.0509163890275130e-09 0.0000000000000000e+00  7.5927570024004944e-04 -1.3788096194953733e-08 0.0000000000000000e+00  7.5927570024735967e-04 -1.3788093242454377e-08 0.0000000000000000e+00  7.5927570024094423e-04 -1.3788098583017439e-08 0.0000000000000000e+00  7.5927570024856856e-04 -1.3788095076924453e-08 0.0000000000000000e+00  7.5927570023552604e-04 -1.3788098704339662e-08 0.0000000000000000e+00  7.5927570023838985e-04 -1.3788094577974613e-08 0.0000000000000000e+00  7.5927570023869766e-04 -1.3788115160143395e-08 0.0000000000000000e+00  7.5927570023977405e-04 -1.3788100796633014e-08 0.0000000000000000e+00  7.5927570023241297e-04 -1.3788117457242538e-08 0.0000000000000000e+00  7.5927570023742600e-04 -1.3788099829633096e-08 0.0000000000000000e+00  7.5927570024083039e-04 -1.3788098900254994e-08 0.0000000000000000e+00  7.5927570021424640e-04 -1.3788140794477460e-08 0.0000000000000000e+00  7.5927570022253025e-04 -1.3788105630223139e-08 0.0000000000000000e+00  7.5927570023220665e-04 -1.3788105526790252e-08 0.0000000000000000e+00  7.5927570023622860e-04 -1.3788099555872048e-08 0.0000000000000000e+00  7.5927570024610981e-04 -1.3788111053510826e-08 0.0000000000000000e+00  7.5927570023878841e-04 -1.3788117508958982e-08 0.0000000000000000e+00  7.5927570023371011e-04 -1.3788103478407088e-08 0.0000000000000000e+00  7.5927570023632260e-04 -1.3788093031251794e-08 0.0000000000000000e+00  7.5927570024395105e-04 -1.3788105551293221e-08 0.0000000000000000e+00  7.5927570024100538e-04 -1.3788098558839730e-08 0.0000000000000000e+00  7.5927570023514906e-04 -1.3788110579497637e-08 0.0000000000000000e+00  7.5927570026560322e-04 -1.3788057282937763e-08 0.0000000000000000e+00  7.5927570025127050e-04 -1.3788104819239914e-08 0.0000000000000000e+00  7.5927570023793742e-04 -1.3788100484924889e-08 0.0000000000000000e+00  7.5927570023805375e-04 -1.3788115323857923e-08 0.0000000000000000e+00  7.5927570023460588e-04 -1.3788106748686101e-08 0.0000000000000000e+00  7.5927570024057734e-04 -1.3788101836057637e-08 0.0000000000000000e+00  7.5927570023538705e-04 -1.3788087840850734e-08 0.0000000000000000e+00  7.5927570025048901e-04 -1.3788099032527659e-08 0.0000000000000000e+00  7.5927570024004987e-04 4.6564252447866921e-09 0.0000000000000000e+00  9.7021830404755830e-04 -1.5304536915778169e-08 0.0000000000000000e+00  9.7021830405589972e-04 -1.5304528760409428e-08 0.0000000000000000e+00  9.7021830405474331e-04 -1.5304535194932481e-08 0.0000000000000000e+00  9.7021830405300642e-04 -1.5304545788021387e-08 0.0000000000000000e+00  9.7021830403918262e-04 -1.5304558977991337e-08 0.0000000000000000e+00  9.7021830404053571e-04 -1.5304551631220575e-08 0.0000000000000000e+00  9.7021830405044879e-04 -1.5304534677551204e-08 0.0000000000000000e+00  9.7021830404834413e-04 -1.5304533910369747e-08 0.0000000000000000e+00  9.7021830405557229e-04 -1.5304535854561083e-08 0.0000000000000000e+00  9.7021830404032819e-04 -1.5304547959461498e-08 0.0000000000000000e+00  9.7021830404543001e-04 -1.5304550481532592e-08 0.0000000000000000e+00  9.7021830403753681e-04 -1.5304524536140923e-08 0.0000000000000000e+00  9.7021830405425195e-04 -1.5304536163341861e-08 0.0000000000000000e+00  9.7021830405555733e-04 -1.5304547596253770e-08 0.0000000000000000e+00  9.7021830404800586e-04 -1.5304548050100800e-08 0.0000000000000000e+00  9.7021830404928717e-04 -1.5304539956965263e-08 0.0000000000000000e+00  9.7021830404068338e-04 -1.5304547936259572e-08 0.0000000000000000e+00  9.7021830404337740e-04 -1.5304537158639456e-08 0.0000000000000000e+00  9.7021830404982949e-04 -1.5304537591886644e-08 0.0000000000000000e+00  9.7021830404552868e-04 -1.5304544202050449e-08 0.0000000000000000e+00  9.7021830405217700e-04 -1.5304540978934231e-08 0.0000000000000000e+00  9.7021830404473266e-04 -1.5304549285007074e-08 0.0000000000000000e+00  9.7021830405976490e-04 -1.5304547973556126e-08 0.0000000000000000e+00  9.7021830404570388e-04 -1.5304527536562015e-08 0.0000000000000000e+00  9.7021830405424957e-04 -1.5304537702692106e-08 0.0000000000000000e+00  9.7021830404022194e-04 -1.5304548469903881e-08 0.0000000000000000e+00  9.7021830404451300e-04 -1.5304532424362249e-08 0.0000000000000000e+00  9.7021830405779469e-04 -1.5304530233623340e-08 0.0000000000000000e+00  9.7021830404872946e-04 -1.5304537537459695e-08 0.0000000000000000e+00  9.7021830404235739e-04 -1.5304537772081045e-08 0.0000000000000000e+00  9.7021830404755852e-04 5.4698290735085967e-09 0.0000000000000000e+00  1.0134013960879265e-03 -1.4041350268481981e-08 0.0000000000000000e+00  1.0134013960830040e-03 -1.4041364513814325e-08 0.0000000000000000e+00  1.0134013960821026e-03 -1.4041374674089724e-08 0.0000000000000000e+00  1.0134013960900968e-03 -1.4041373484286260e-08 0.0000000000000000e+00  1.0134013960800294e-03 -1.4041361503852254e-08 0.0000000000000000e+00  1.0134013960875357e-03 -1.4041363487725389e-08 0.0000000000000000e+00  1.0134013960867629e-03 -1.4041368137543246e-08 0.0000000000000000e+00  1.0134013960810375e-03 -1.4041368368261468e-08 0.0000000000000000e+00  1.0134013960899347e-03 -1.4041372070052946e-08 0.0000000000000000e+00  1.0134013960833943e-03 -1.4041367549363568e-08 0.0000000000000000e+00  1.0134013960795209e-03 -1.4041370036198091e-08 0.0000000000000000e+00  1.0134013960882461e-03 -1.4041371315014553e-08 0.0000000000000000e+00  1.0134013960857260e-03 -1.4041373215187281e-08 0.0000000000000000e+00  1.0134013960841329e-03 -1.4041366511998929e-08 0.0000000000000000e+00  1.0134013960901487e-03 -1.4041362957225266e-08 0.0000000000000000e+00  1.0134013960876940e-03 -1.4041369043611002e-08 0.0000000000000000e+00  1.0134013960902723e-03 -1.4041375222153922e-08 0.0000000000000000e+00  1.0134013960793394e-03 -1.4041364051510519e-08 0.0000000000000000e+00  1.0134013960885022e-03 -1.4041360499447361e-08 0.0000000000000000e+00  1.0134013960813801e-03 -1.4041361557411841e-08 0.0000000000000000e+00  1.0134013960864914e-03 -1.4041357998518210e-08 0.0000000000000000e+00  1.0134013960905954e-03 -1.4041366063356070e-08 0.0000000000000000e+00  1.0134013960863492e-03 -1.4041366220240124e-08 0.0000000000000000e+00  1.0134013960842055e-03 -1.4041354222025203e-08 0.0000000000000000e+00  1.0134013960927390e-03 -1.4041369024637464e-08 0.0000000000000000e+00  1.0134013960866888e-03 -1.4041359903895108e-08 0.0000000000000000e+00  1.0134013960849549e-03 -1.4041367230282868e-08 0.0000000000000000e+00  1.0134013960868533e-03 -1.4041356448868045e-08 0.0000000000000000e+00  1.0134013960831053e-03 -1.4041358141199216e-08 0.0000000000000000e+00  1.0134013960916856e-03 -1.4041355125490873e-08 0.0000000000000000e+00  1.0134013960879269e-03 5.3087633625138551e-09 0.0000000000000000e+00  8.8135821828881362e-04 -1.0232556032097745e-08 0.0000000000000000e+00  8.8135821828385556e-04 -1.0232559044119800e-08 0.0000000000000000e+00  8.8135821828350840e-04 -1.0232545367126235e-08 0.0000000000000000e+00  8.8135821827774522e-04 -1.0232554617322330e-08 0.0000000000000000e+00  8.8135821828117683e-04 -1.0232562724986176e-08 0.0000000000000000e+00  8.8135821828851818e-04 -1.0232551847402620e-08 0.0000000000000000e+00  8.8135821828716422e-04 -1.0232564483995781e-08 0.0000000000000000e+00  8.8135821828289626e-04 -1.0232566144126147e-08 0.0000000000000000e+00  8.8135821828659328e-04 -1.0232559276681166e-08 0.0000000000000000e+00  8.8135821827720528e-04 -1.0232545842657308e-08 0.0000000000000000e+00  8.8135821829378642e-04 -1.0232539896892594e-08 0.0000000000000000e+00  8.8135821828425683e-04 -1.0232533677800512e-08 0.0000000000000000e+00  8.8135821829099861e-04 -1.0232548382292476e-08 0.0000000000000000e+00  8.8135821827474967e-04 -1.0232560908839117e-08 0.0000000000000000e+00  8.8135821828665693e-04 -1.0232551607251839e-08 0.0000000000000000e+00  8.8135821828478310e-04 -1.0232553704207260e-08 0.0000000000000000e+00  8.8135821828669184e-04 -1.0232549693092903e-08 0.0000000000000000e+00  8.8135821827694486e-04 -1.0232558588754888e-08 0.0000000000000000e+00  8.8135821829881593e-04 -1.0232572339040520e-08 0.0000000000000000e+00  8.8135821827420768e-04 -1.0232557395265136e-08 0.0000000000000000e+00  8.8135821828345332e-04 -1.0232556806434936e-08 0.0000000000000000e+00  8.8135821828094014e-04 -1.0232558211994633e-08 0.0000000000000000e+00  8.8135821827851435e-04 -1.0232561754733652e-08 0.0000000000000000e+00  8.8135821829132821e-04 -1.0232551461535067e-08 0.0000000000000000e+00  8.8135821828467414e-04 -1.0232567592511829e-08 0.0000000000000000e+00  8.8135821827564978e-04 -1.0232561580719203e-08 0.0000000000000000e+00  8.8135821828908120e-04 -1.0232552267097281e-08 0.0000000000000000e+00  8.8135821829449343e-04 -1.0232544203668884e-08 0.0000000000000000e+00  8.8135821828267259e-04 -1.0232556904880494e-08 0.0000000000000000e+00  8.8135821827892971e-04 -1.0232568547151842e-08 0.0000000000000000e+00  8.8135821828881405e-04 4.1851644435585827e-09 0.0000000000000000e+00  5.9692019459708326e-04 -4.6502416775682891e-09 0.0000000000000000e+00  5.9692019459229976e-04 -4.6502511711135619e-09 0.0000000000000000e+00  5.9692019460145184e-04 -4.6502433113525428e-09 0.0000000000000000e+00  5.9692019459630871e-04 -4.6502549232120202e-09 0.0000000000000000e+00  5.9692019459192799e-04 -4.6502343031503725e-09 0.0000000000000000e+00  5.9692019459526235e-04 -4.6502378607429611e-09 0.0000000000000000e+00  5.9692019459792818e-04 -4.6502391082259807e-09 0.0000000000000000e+00  5.9692019459511728e-04 -4.6502241894414570e-09 0.0000000000000000e+00  5.9692019460277370e-04 -4.6502323806972903e-09 0.0000000000000000e+00  5.9692019460722630e-04 -4.6502308959366252e-09 0.0000000000000000e+00  5.9692019459965120e-04 -4.6502370730158726e-09 0.0000000000000000e+00  5.9692019459350507e-04 -4.6502407955156116e-09 0.0000000000000000e+00  5.9692019460455092e-04 -4.6502478623995820e-09 0.0000000000000000e+00  5.9692019457969158e-04 -4.6502433194298490e-09 0.0000000000000000e+00  5.9692019460903345e-04 -4.6502320306084088e-09 0.0000000000000000e+00  5.9692019460097739e-04 -4.6502311512662368e-09 0.0000000000000000e+00  5.9692019459750383e-04 -4.6502475594734950e-09 0.0000000000000000e+00  5.9692019459409986e-04 -4.6502416050351637e-09 0.0000000000000000e+00  5.9692019460014017e-04 -4.6502403315312919e-09 0.0000000000000000e+00  5.9692019459588522e-04 -4.6502510191084173e-09 0.0000000000000000e+00  5.9692019458765201e-04 -4.6502415608539252e-09 0.0000000000000000e+00  5.9692019459484861e-04 -4.6502352699876598e-09 0.0000000000000000e+00  5.9692019460480929e-04 -4.6502296893822376e-09 0.0000000000000000e+00  5.9692019460039138e-04 -4.6502451627903826e-09 0.0000000000000000e+00  5.9692019458567659e-04 -4.6502344515234398e-09 0.0000000000000000e+00  5.9692019459978499e-04 -4.6502443307194254e-09 0.0000000000000000e+00  5.9692019460056279e-04 -4.6502371730877332e-09 0.0000000000000000e+00  5.9692019460134580e-04 -4.6502458612876323e-09 0.0000000000000000e+00  5.9692019459591081e-04 -4.6502478026058322e-09 0.0000000000000000e+00  5.9692019459168415e-04 -4.6502465184767791e-09 0.0000000000000000e+00  5.9692019459708337e-04 2.3136584996015868e-09 0.0000000000000000e+00  2.0926919749402552e-04 1.6039624462329313e-09 0.0000000000000000e+00  2.0926919749427310e-04 1.6039699189473273e-09 0.0000000000000000e+00  2.0926919750106866e-04 1.6039636562838709e-09 0.0000000000000000e+00  2.0926919749243657e-04 1.6039709043922344e-09 0.0000000000000000e+00  2.0926919750054813e-04 1.6039601554086085e-09 0.0000000000000000e+00  2.0926919749247167e-04 1.6039706095434536e-09 0.0000000000000000e+00  2.0926919750109663e-04 1.6039663283543351e-09 0.0000000000000000e+00  2.0926919750656974e-04 1.6039553360215316e-09 0.0000000000000000e+00  2.0926919750432877e-04 1.6039610681577599e-09 0.0000000000000000e+00  2.0926919749923975e-04 1.6039591148320209e-09 0.0000000000000000e+00  2.0926919749696761e-04 1.6039623135672429e-09 0.0000000000000000e+00  2.0926919750215248e-04 1.6039544237873762e-09 0.0000000000000000e+00  2.0926919750273757e-04 1.6039734669447267e-09 0.0000000000000000e+00  2.0926919749920562e-04 1.6039651505855151e-09 0.0000000000000000e+00  2.0926919748491871e-04 1.6039534200194524e-09 0.0000000000000000e+00  2.0926919750938845e-04 1.6039570953428443e-09 0.0000000000000000e+00  2.0926919749476514e-04 1.6039527169821061e-09 0.0000000000000000e+00  2.0926919749670025e-04 1.6039641743021164e-09 0.0000000000000000e+00  2.0926919750130686e-04 1.6039791820996385e-09 0.0000000000000000e+00  2.0926919751060801e-04 1.6039672227669173e-09 0.0000000000000000e+00  2.0926919749637862e-04 1.6039579979547055e-09 0.0000000000000000e+00  2.0926919748964377e-04 1.6039530269690598e-09 0.0000000000000000e+00  2.0926919750132047e-04 1.6039481250741975e-09 0.0000000000000000e+00  2.0926919749360545e-04 1.6039795332456171e-09 0.0000000000000000e+00  2.0926919750379903e-04 1.6039595765124110e-09 0.0000000000000000e+00  2.0926919750007415e-04 1.6039763829742322e-09 0.0000000000000000e+00  2.0926919750055670e-04 1.6039641441884011e-09 0.0000000000000000e+00  2.0926919749363260e-04 1.6039717294836402e-09 0.0000000000000000e+00  2.0926919750107598e-04 1.6039709467980919e-09 0.0000000000000000e+00  2.0926919750333800e-04 1.6039646653101753e-09 0.0000000000000000e+00  2.0926919749402552e-04 6.0679597669719013e-11 0.0000000000000000e+00  -2.1456641416764345e-04 7.3796001841871378e-09 0.0000000000000000e+00  -2.1456641416458156e-04 7.3796064416057662e-09 0.0000000000000000e+00  -2.1456641416331998e-04 7.3795964284023921e-09 0.0000000000000000e+00  -2.1456641416412191e-04 7.3795932140140012e-09 0.0000000000000000e+00  -2.1456641416365304e-04 7.3796004366978238e-09 0.0000000000000000e+00  -2.1456641416169113e-04 7.3795880399843937e-09 0.0000000000000000e+00  -2.1456641417435228e-04 7.3795861565083797e-09 0.0000000000000000e+00  -2.1456641415589401e-04 7.3796021081581030e-09 0.0000000000000000e+00  -2.1456641416576843e-04 7.3796034155432927e-09 0.0000000000000000e+00  -2.1456641415983020e-04 7.3795868598845391e-09 0.0000000000000000e+00  -2.1456641416668919e-04 7.3796005612184433e-09 0.0000000000000000e+00  -2.1456641416427543e-04 7.3796002450650898e-09 0.0000000000000000e+00  -2.1456641416033446e-04 7.3796015946799541e-09 0.0000000000000000e+00  -2.1456641416041323e-04 7.3795864332509842e-09 0.0000000000000000e+00  -2.1456641416609033e-04 7.3795957827599984e-09 0.0000000000000000e+00  -2.1456641416393168e-04 7.3796024357497894e-09 0.0000000000000000e+00  -2.1456641416559387e-04 7.3796030269652341e-09 0.0000000000000000e+00  -2.1456641416058128e-04 7.3796009489291402e-09 0.0000000000000000e+00  -2.1456641416414809e-04 7.3795774790420821e-09 0.0000000000000000e+00  -2.1456641416027391e-04 7.3795919773730033e-09 0.0000000000000000e+00  -2.1456641417207491e-04 7.3795912744305248e-09 0.0000000000000000e+00  -2.1456641417103592e-04 7.3795996650711376e-09 0.0000000000000000e+00  -2.1456641417200303e-04 7.3796017200137252e-09 0.0000000000000000e+00  -2.1456641415753549e-04 7.3796071998967656e-09 0.0000000000000000e+00  -2.1456641415082574e-04 7.3796039719016375e-09 0.0000000000000000e+00  -2.1456641415747521e-04 7.3795946548102682e-09 0.0000000000000000e+00  -2.1456641417448851e-04 7.3795827979210998e-09 0.0000000000000000e+00  -2.1456641416821157e-04 7.3795930317054059e-09 0.0000000000000000e+00  -2.1456641415256935e-04 7.3796011534638800e-09 0.0000000000000000e+00  -2.1456641416143536e-04 7.3795977038036177e-09 0.0000000000000000e+00  -2.1456641416764361e-04 -2.1470036342630564e-09 0.0000000000000000e+00  -6.0130159386233490e-04 1.1721960994632956e-08 0.0000000000000000e+00  -6.0130159386498111e-04 1.1721960793621873e-08 0.00