<?xml version="1.0"?>
<VTKFile type="UnstructuredGrid"  version="0.1"  >
<UnstructuredGrid>
<Piece  NumberOfPoints="961" NumberOfCells="1800">
<Points>
<DataArray  type="Float64"  NumberOfComponents="3"  format="ascii">0 0 0  0.03333333333333333 0 0  0.06666666666666667 0 0  0.1 0 0  0.1333333333333333 0 0  0.1666666666666667 0 0  0.2 0 0  0.2333333333333333 0 0  0.2666666666666667 0 0  0.3 0 0  0.3333333333333333 0 0  0.3666666666666666 0 0  0.4 0 0  0.4333333333333333 0 0  0.4666666666666667 0 0  0.5 0 0  0.5333333333333333 0 0  0.5666666666666667 0 0  0.6 0 0  0.6333333333333333 0 0  0.6666666666666666 0 0  0.7 0 0  0.7333333333333333 0 0  0.7666666666666667 0 0  0.8 0 0  0.8333333333333334 0 0  0.8666666666666667 0 0  0.9 0 0  0.9333333333333333 0 0  0.9666666666666667 0 0  1 0 0  0 0.03333333333333333 0  0.03333333333333333 0.03333333333333333 0  0.06666666666666667 0.03333333333333333 0  0.1 0.03333333333333333 0  0.1333333333333333 0.03333333333333333 0  0.1666666666666667 0.03333333333333333 0  0.2 0.03333333333333333 0  0.2333333333333333 0.03333333333333333 0  0.2666666666666667 0.03333333333333333 0  0.3 0.03333333333333333 0  0.3333333333333333 0.03333333333333333 0  0.3666666666666666 0.03333333333333333 0  0.4 0.03333333333333333 0  0.4333333333333333 0.03333333333333333 0  0.4666666666666667 0.03333333333333333 0  0.5 0.03333333333333333 0  0.5333333333333333 0.03333333333333333 0  0.5666666666666667 0.03333333333333333 0  0.6 0.03333333333333333 0  0.6333333333333333 0.03333333333333333 0  0.6666666666666666 0.03333333333333333 0  0.7 0.03333333333333333 0  0.7333333333333333 0.03333333333333333 0  0.7666666666666667 0.03333333333333333 0  0.8 0.03333333333333333 0  0.8333333333333334 0.03333333333333333 0  0.8666666666666667 0.03333333333333333 0  0.9 0.03333333333333333 0  0.9333333333333333 0.03333333333333333 0  0.9666666666666667 0.03333333333333333 0  1 0.03333333333333333 0  0 0.06666666666666667 0  0.03333333333333333 0.06666666666666667 0  0.06666666666666667 0.06666666666666667 0  0.1 0.06666666666666667 0  0.1333333333333333 0.06666666666666667 0  0.1666666666666667 0.06666666666666667 0  0.2 0.06666666666666667 0  0.2333333333333333 0.06666666666666667 0  0.2666666666666667 0.06666666666666667 0  0.3 0.06666666666666667 0  0.3333333333333333 0.06666666666666667 0  0.3666666666666666 0.06666666666666667 0  0.4 0.06666666666666667 0  0.4333333333333333 0.06666666666666667 0  0.4666666666666667 0.06666666666666667 0  0.5 0.06666666666666667 0  0.5333333333333333 0.06666666666666667 0  0.5666666666666667 0.06666666666666667 0  0.6 0.06666666666666667 0  0.6333333333333333 0.06666666666666667 0  0.6666666666666666 0.06666666666666667 0  0.7 0.06666666666666667 0  0.7333333333333333 0.06666666666666667 0  0.7666666666666667 0.06666666666666667 0  0.8 0.06666666666666667 0  0.8333333333333334 0.06666666666666667 0  0.8666666666666667 0.06666666666666667 0  0.9 0.06666666666666667 0  0.9333333333333333 0.06666666666666667 0  0.9666666666666667 0.06666666666666667 0  1 0.06666666666666667 0  0 0.1 0  0.03333333333333333 0.1 0  0.06666666666666667 0.1 0  0.1 0.1 0  0.1333333333333333 0.1 0  0.1666666666666667 0.1 0  0.2 0.1 0  0.2333333333333333 0.1 0  0.2666666666666667 0.1 0  0.3 0.1 0  0.3333333333333333 0.1 0  0.3666666666666666 0.1 0  0.4 0.1 0  0.4333333333333333 0.1 0  0.4666666666666667 0.1 0  0.5 0.1 0  0.5333333333333333 0.1 0  0.5666666666666667 0.1 0  0.6 0.1 0  0.6333333333333333 0.1 0  0.6666666666666666 0.1 0  0.7 0.1 0  0.7333333333333333 0.1 0  0.7666666666666667 0.1 0  0.8 0.1 0  0.8333333333333334 0.1 0  0.8666666666666667 0.1 0  0.9 0.1 0  0.9333333333333333 0.1 0  0.9666666666666667 0.1 0  1 0.1 0  0 0.1333333333333333 0  0.03333333333333333 0.1333333333333333 0  0.06666666666666667 0.1333333333333333 0  0.1 0.1333333333333333 0  0.1333333333333333 0.1333333333333333 0  0.1666666666666667 0.1333333333333333 0  0.2 0.1333333333333333 0  0.2333333333333333 0.1333333333333333 0  0.2666666666666667 0.1333333333333333 0  0.3 0.1333333333333333 0  0.3333333333333333 0.1333333333333333 0  0.3666666666666666 0.1333333333333333 0  0.4 0.1333333333333333 0  0.4333333333333333 0.1333333333333333 0  0.4666666666666667 0.1333333333333333 0  0.5 0.1333333333333333 0  0.5333333333333333 0.1333333333333333 0  0.5666666666666667 0.1333333333333333 0  0.6 0.1333333333333333 0  0.6333333333333333 0.1333333333333333 0  0.6666666666666666 0.1333333333333333 0  0.7 0.1333333333333333 0  0.7333333333333333 0.1333333333333333 0  0.7666666666666667 0.1333333333333333 0  0.8 0.1333333333333333 0  0.8333333333333334 0.1333333333333333 0  0.8666666666666667 0.1333333333333333 0  0.9 0.1333333333333333 0  0.9333333333333333 0.1333333333333333 0  0.9666666666666667 0.1333333333333333 0  1 0.1333333333333333 0  0 0.1666666666666667 0  0.03333333333333333 0.1666666666666667 0  0.06666666666666667 0.1666666666666667 0  0.1 0.1666666666666667 0  0.1333333333333333 0.1666666666666667 0  0.1666666666666667 0.1666666666666667 0  0.2 0.1666666666666667 0  0.2333333333333333 0.1666666666666667 0  0.2666666666666667 0.1666666666666667 0  0.3 0.1666666666666667 0  0.3333333333333333 0.1666666666666667 0  0.3666666666666666 0.1666666666666667 0  0.4 0.1666666666666667 0  0.4333333333333333 0.1666666666666667 0  0.4666666666666667 0.1666666666666667 0  0.5 0.1666666666666667 0  0.5333333333333333 0.1666666666666667 0  0.5666666666666667 0.1666666666666667 0  0.6 0.1666666666666667 0  0.6333333333333333 0.1666666666666667 0  0.6666666666666666 0.1666666666666667 0  0.7 0.1666666666666667 0  0.7333333333333333 0.1666666666666667 0  0.7666666666666667 0.1666666666666667 0  0.8 0.1666666666666667 0  0.8333333333333334 0.1666666666666667 0  0.8666666666666667 0.1666666666666667 0  0.9 0.1666666666666667 0  0.9333333333333333 0.1666666666666667 0  0.9666666666666667 0.1666666666666667 0  1 0.1666666666666667 0  0 0.2 0  0.03333333333333333 0.2 0  0.06666666666666667 0.2 0  0.1 0.2 0  0.1333333333333333 0.2 0  0.1666666666666667 0.2 0  0.2 0.2 0  0.2333333333333333 0.2 0  0.2666666666666667 0.2 0  0.3 0.2 0  0.3333333333333333 0.2 0  0.3666666666666666 0.2 0  0.4 0.2 0  0.4333333333333333 0.2 0  0.4666666666666667 0.2 0  0.5 0.2 0  0.5333333333333333 0.2 0  0.5666666666666667 0.2 0  0.6 0.2 0  0.6333333333333333 0.2 0  0.6666666666666666 0.2 0  0.7 0.2 0  0.7333333333333333 0.2 0  0.7666666666666667 0.2 0  0.8 0.2 0  0.8333333333333334 0.2 0  0.8666666666666667 0.2 0  0.9 0.2 0  0.9333333333333333 0.2 0  0.9666666666666667 0.2 0  1 0.2 0  0 0.2333333333333333 0  0.03333333333333333 0.2333333333333333 0  0.06666666666666667 0.2333333333333333 0  0.1 0.2333333333333333 0  0.1333333333333333 0.2333333333333333 0  0.1666666666666667 0.2333333333333333 0  0.2 0.2333333333333333 0  0.2333333333333333 0.2333333333333333 0  0.2666666666666667 0.2333333333333333 0  0.3 0.2333333333333333 0  0.3333333333333333 0.2333333333333333 0  0.3666666666666666 0.2333333333333333 0  0.4 0.2333333333333333 0  0.4333333333333333 0.2333333333333333 0  0.4666666666666667 0.2333333333333333 0  0.5 0.2333333333333333 0  0.5333333333333333 0.2333333333333333 0  0.5666666666666667 0.2333333333333333 0  0.6 0.2333333333333333 0  0.6333333333333333 0.2333333333333333 0  0.6666666666666666 0.2333333333333333 0  0.7 0.2333333333333333 0  0.7333333333333333 0.2333333333333333 0  0.7666666666666667 0.2333333333333333 0  0.8 0.2333333333333333 0  0.8333333333333334 0.2333333333333333 0  0.8666666666666667 0.2333333333333333 0  0.9 0.2333333333333333 0  0.9333333333333333 0.2333333333333333 0  0.9666666666666667 0.2333333333333333 0  1 0.2333333333333333 0  0 0.2666666666666667 0  0.03333333333333333 0.2666666666666667 0  0.06666666666666667 0.2666666666666667 0  0.1 0.2666666666666667 0  0.1333333333333333 0.2666666666666667 0  0.1666666666666667 0.2666666666666667 0  0.2 0.2666666666666667 0  0.2333333333333333 0.2666666666666667 0  0.2666666666666667 0.2666666666666667 0  0.3 0.2666666666666667 0  0.3333333333333333 0.2666666666666667 0  0.3666666666666666 0.2666666666666667 0  0.4 0.2666666666666667 0  0.4333333333333333 0.2666666666666667 0  0.4666666666666667 0.2666666666666667 0  0.5 0.2666666666666667 0  0.5333333333333333 0.2666666666666667 0  0.5666666666666667 0.2666666666666667 0  0.6 0.2666666666666667 0  0.6333333333333333 0.2666666666666667 0  0.6666666666666666 0.2666666666666667 0  0.7 0.2666666666666667 0  0.7333333333333333 0.2666666666666667 0  0.7666666666666667 0.2666666666666667 0  0.8 0.2666666666666667 0  0.8333333333333334 0.2666666666666667 0  0.8666666666666667 0.2666666666666667 0  0.9 0.2666666666666667 0  0.9333333333333333 0.2666666666666667 0  0.9666666666666667 0.2666666666666667 0  1 0.2666666666666667 0  0 0.3 0  0.03333333333333333 0.3 0  0.06666666666666667 0.3 0  0.1 0.3 0  0.1333333333333333 0.3 0  0.1666666666666667 0.3 0  0.2 0.3 0  0.2333333333333333 0.3 0  0.2666666666666667 0.3 0  0.3 0.3 0  0.3333333333333333 0.3 0  0.3666666666666666 0.3 0  0.4 0.3 0  0.4333333333333333 0.3 0  0.4666666666666667 0.3 0  0.5 0.3 0  0.5333333333333333 0.3 0  0.5666666666666667 0.3 0  0.6 0.3 0  0.6333333333333333 0.3 0  0.6666666666666666 0.3 0  0.7 0.3 0  0.7333333333333333 0.3 0  0.7666666666666667 0.3 0  0.8 0.3 0  0.8333333333333334 0.3 0  0.8666666666666667 0.3 0  0.9 0.3 0  0.9333333333333333 0.3 0  0.9666666666666667 0.3 0  1 0.3 0  0 0.3333333333333333 0  0.03333333333333333 0.3333333333333333 0  0.06666666666666667 0.3333333333333333 0  0.1 0.3333333333333333 0  0.1333333333333333 0.3333333333333333 0  0.1666666666666667 0.3333333333333333 0  0.2 0.3333333333333333 0  0.2333333333333333 0.3333333333333333 0  0.2666666666666667 0.3333333333333333 0  0.3 0.3333333333333333 0  0.3333333333333333 0.3333333333333333 0  0.3666666666666666 0.3333333333333333 0  0.4 0.3333333333333333 0  0.4333333333333333 0.3333333333333333 0  0.4666666666666667 0.3333333333333333 0  0.5 0.3333333333333333 0  0.5333333333333333 0.33333333333333
[...]
<PointData  Scalars="q_f"> 
<DataArray  type="Float64"  Name="q_f"  format="ascii">9.9873977897629618e-01  9.9873977897636534e-01  9.9873977897636412e-01  9.9873977897630428e-01  9.9873977897621447e-01  9.9873977897644373e-01  9.9873977897625721e-01  9.9873977897643451e-01  9.9873977897633681e-01  9.9873977897643484e-01  9.9873977897634625e-01  9.9873977897640098e-01  9.9873977897977739e-01  9.9873977897661848e-01  9.9873977897608157e-01  9.9873977897639099e-01  9.9873977897630528e-01  9.9873977897617661e-01  9.9873977897624822e-01  9.9873977897615995e-01  9.9873977897620902e-01  9.9873977897632926e-01  9.9873977897615718e-01  9.9873977897263211e-01  9.9873977897603572e-01  9.9873977897622856e-01  9.9873977897621424e-01  9.9873977897607336e-01  9.9873977897637611e-01  9.9873977897614596e-01  9.9873977897629618e-01  9.9884873009186248e-01  9.9884873009203601e-01  9.9884873009180919e-01  9.9884873009186148e-01  9.9884873009177699e-01  9.9884873009197417e-01  9.9884873009182595e-01  9.9884873009190245e-01  9.9884873009191000e-01  9.9884873009186137e-01  9.9884873009220698e-01  9.9884873009549080e-01  9.9884873009515396e-01  9.9884873009196418e-01  9.9884873009181485e-01  9.9884873009184350e-01  9.9884873009176256e-01  9.9884873009181585e-01  9.9884873009197350e-01  9.9884873009187247e-01  9.9884873009176334e-01  9.9884873009155872e-01  9.9884873008830322e-01  9.9884873008845865e-01  9.9884873009173170e-01  9.9884873009192043e-01  9.9884873009200392e-01  9.9884873009186059e-01  9.9884873009180197e-01  9.9884873009172059e-01  9.9884873009186248e-01  9.9915674559410794e-01  9.9915674559399770e-01  9.9915674559412981e-01  9.9915674559433609e-01  9.9915674559424006e-01  9.9915674559425083e-01  9.9915674559419532e-01  9.9915674559407952e-01  9.9915674559428180e-01  9.9915674559421142e-01  9.9915674559417833e-01  9.9915674559820877e-01  9.9915674559727530e-01  9.9915674559434520e-01  9.9915674559415335e-01  9.9915674559403034e-01  9.9915674559415102e-01  9.9915674559438861e-01  9.9915674559411283e-01  9.9915674559412937e-01  9.9915674559396050e-01  9.9915674559399126e-01  9.9915674559019829e-01  9.9915674559111545e-01  9.9915674559397527e-01  9.9915674559405165e-01  9.9915674559426293e-01  9.9915674559419776e-01  9.9915674559418566e-01  9.9915674559411238e-01  9.9915674559410794e-01  9.9961056860717168e-01  9.9961056860700404e-01  9.9961056860703024e-01  9.9961056860697084e-01  9.9961056860706776e-01  9.9961056860708375e-01  9.9961056860685993e-01  9.9961056860705022e-01  9.9961056860690534e-01  9.9961056860698339e-01  9.9961056860717834e-01  9.9961056861070519e-01  9.9961056860661279e-01  9.9961056860718622e-01  9.9961056860706188e-01  9.9961056860681152e-01  9.9961056860704978e-01  9.9961056860711051e-01  9.9961056860705055e-01  9.9961056860701392e-01  9.9961056860691688e-01  9.9961056860664865e-01  9.9961056860343489e-01  9.9961056860730613e-01  9.9961056860690933e-01  9.9961056860685482e-01  9.9961056860701525e-01  9.9961056860706343e-01  9.9961056860696329e-01  9.9961056860711983e-01  9.9961056860717168e-01  1.0001317305424922e+00  1.0001317305426114e+00  1.0001317305423774e+00  1.0001317305423345e+00  1.0001317305423021e+00  1.0001317305424293e+00  1.0001317305422490e+00  1.0001317305424653e+00  1.0001317305422730e+00  1.0001317305424693e+00  1.0001317305424444e+00  1.0001317305424686e+00  1.0001317305424486e+00  1.0001317305424198e+00  1.0001317305423869e+00  1.0001317305421298e+00  1.0001317305424264e+00  1.0001317305424211e+00  1.0001317305423516e+00  1.0001317305423354e+00  1.0001317305423842e+00  1.0001317305423052e+00  1.0001317305421864e+00  1.0001317305425192e+00  1.0001317305420896e+00  1.0001317305424857e+00  1.0001317305422601e+00  1.0001317305424113e+00  1.0001317305423665e+00  1.0001317305424515e+00  1.0001317305424922e+00  1.0006301180180333e+00  1.0006301180180626e+00  1.0006301180181456e+00  1.0006301180180692e+00  1.0006301180180397e+00  1.0006301180180599e+00  1.0006301180180637e+00  1.0006301180179540e+00  1.0006301180181743e+00  1.0006301180179318e+00  1.0006301180180723e+00  1.0006301180180188e+00  1.0006301180181132e+00  1.0006301180180228e+00  1.0006301180180854e+00  1.0006301180180917e+00  1.0006301180179116e+00  1.0006301180181301e+00  1.0006301180181840e+00  1.0006301180179344e+00  1.0006301180181469e+00  1.0006301180179520e+00  1.0006301180182400e+00  1.0006301180179618e+00  1.0006301180179160e+00  1.0006301180179951e+00  1.0006301180180837e+00  1.0006301180180712e+00  1.0006301180179704e+00  1.0006301180179664e+00  1.0006301180180333e+00  1.0010195541972997e+00  1.0010195541971725e+00  1.0010195541973328e+00  1.0010195541972726e+00  1.0010195541974025e+00  1.0010195541973630e+00  1.0010195541974753e+00  1.0010195541974396e+00  1.0010195541971605e+00  1.0010195541973015e+00  1.0010195541974121e+00  1.0010195541973965e+00  1.0010195541972400e+00  1.0010195541974203e+00  1.0010195541974869e+00  1.0010195541971880e+00  1.0010195541973241e+00  1.0010195541973217e+00  1.0010195541972966e+00  1.0010195541974019e+00  1.0010195541971973e+00  1.0010195541973088e+00  1.0010195541974121e+00  1.0010195541970315e+00  1.0010195541974165e+00  1.0010195541973737e+00  1.0010195541974094e+00  1.0010195541972964e+00  1.0010195541974951e+00  1.0010195541974152e+00  1.0010195541972997e+00  1.0012327003383168e+00  1.0012327003382679e+00  1.0012327003383916e+00  1.0012327003384072e+00  1.0012327003383115e+00  1.0012327003383605e+00  1.0012327003384345e+00  1.0012327003382744e+00  1.0012327003383727e+00  1.0012327003383390e+00  1.0012327003384067e+00  1.0012327003386146e+00  1.0012327003382204e+00  1.0012327003382639e+00  1.0012327003382051e+00  1.0012327003383530e+00  1.0012327003382042e+00  1.0012327003381714e+00  1.0012327003382266e+00  1.0012327003381667e+00  1.0012327003383974e+00  1.0012327003383914e+00  1.0012327003383827e+00  1.0012327003383221e+00  1.0012327003382087e+00  1.0012327003382808e+00  1.0012327003384043e+00  1.0012327003383792e+00  1.0012327003384278e+00  1.0012327003384429e+00  1.0012327003383168e+00  1.0012327003385633e+00  1.0012327003385733e+00  1.0012327003385191e+00  1.0012327003384516e+00  1.0012327003383272e+00  1.0012327003385888e+00  1.0012327003386883e+00  1.0012327003385850e+00  1.0012327003385817e+00  1.0012327003384702e+00  1.0012327003385530e+00  1.0012327003385919e+00  1.0012327003383021e+00  1.0012327003384394e+00  1.0012327003385426e+00  1.0012327003385004e+00  1.0012327003382344e+00  1.0012327003385100e+00  1.0012327003383403e+00  1.0012327003385468e+00  1.0012327003383803e+00  1.0012327003386379e+00  1.0012327003387489e+00  1.0012327003386066e+00  1.0012327003386126e+00  1.0012327003385184e+00  1.0012327003385855e+00  1.0012327003385502e+00  1.0012327003384844e+00  1.0012327003384045e+00  1.0012327003385633e+00  1.0010195541974771e+00  1.0010195541976215e+00  1.0010195541971620e+00  1.0010195541974365e+00  1.0010195541975302e+00  1.0010195541973610e+00  1.0010195541975524e+00  1.0010195541975324e+00  1.0010195541976068e+00  1.0010195541974909e+00  1.0010195541974622e+00  1.0010195541974005e+00  1.0010195541976137e+00  1.0010195541975198e+00  1.0010195541976192e+00  1.0010195541973883e+00  1.0010195541974556e+00  1.0010195541975104e+00  1.0010195541974503e+00  1.0010195541973506e+00  1.0010195541975926e+00  1.0010195541975486e+00  1.0010195541974107e+00  1.0010195541975115e+00  1.0010195541975584e+00  1.0010195541975442e+00  1.0010195541975708e+00  1.0010195541973874e+00  1.0010195541974103e+00  1.0010195541976825e+00  1.0010195541974771e+00  1.0006301180177808e+00  1.0006301180176045e+00  1.0006301180178716e+00  1.0006301180174868e+00  1.0006301180178232e+00  1.0006301180179344e+00  1.0006301180182258e+00  1.0006301180180548e+00  1.0006301180179227e+00  1.0006301180179364e+00  1.0006301180180761e+00  1.0006301180181358e+00  1.0006301180180901e+00  1.0006301180179400e+00  1.0006301180180772e+00  1.0006301180179533e+00  1.0006301180180592e+00  1.0006301180180628e+00  1.0006301180181427e+00  1.0006301180181485e+00  1.0006301180179160e+00  1.0006301180178707e+00  1.0006301180181101e+00  1.0006301180179584e+00  1.0006301180180630e+00  1.0006301180181616e+00  1.0006301180178558e+00  1.0006301180179582e+00  1.0006301180179402e+00  1.0006301180177628e+00  1.0006301180177808e+00  1.0001317305423070e+00  1.0001317305391100e+00  1.0001317305386770e+00  1.0001317305389108e+00  1.0001317305424493e+00  1.0001317305426625e+00  1.0001317305426971e+00  1.0001317305426838e+00  1.0001317305428312e+00  1.0001317305426813e+00  1.0001317305426740e+00  1.0001317305425792e+00  1.0001317305425084e+00  1.0001317305425605e+00  1.0001317305427484e+00  1.0001317305426332e+00  1.0001317305427293e+00  1.0001317305426649e+00  1.0001317305427477e+00  1.0001317305425512e+00  1.0001317305426227e+00  1.0001317305426869e+00  1.0001317305427064e+00  1.0001317305427997e+00  1.0001317305427246e+00  1.0001317305425219e+00  1.0001317305426385e+00  1.0001317305426929e+00  1.0001317305425381e+00  1.0001317305427879e+00  1.0001317305423070e+00  9.9961056860336828e-01  9.9961056860355735e-01  9.9961056860388842e-01  9.9961056860738773e-01  9.9961056860701603e-01  9.9961056860705455e-01  9.9961056860681319e-01  9.9961056860706132e-01  9.9961056860691377e-01  9.9961056860705655e-01  9.9961056860688524e-01  9.9961056860696740e-01  9.9961056860686848e-01  9.9961056860708386e-01  9.9961056860698805e-01  9.9961056860693975e-01  9.9961056860697306e-01  9.9961056860693909e-01  9.9961056860689224e-01  9.9961056860720376e-01  9.9961056860690733e-01  9.9961056860704489e-01  9.9961056860700370e-01  9.9961056860691444e-01  9.9961056860690911e-01  9.9961056860698705e-01  9.9961056860694730e-01  9.9961056860688136e-01  9.9961056860702757e-01  9.9961056860697617e-01  9.9961056860336828e-01  9.9915674559371581e-01  9.9915674559389622e-01  9.9915674559390699e-01  9.9915674559428735e-01  9.9915674559397483e-01  9.9915674559407730e-01  9.9915674559428269e-01  9.9915674559412626e-01  9.9915674559403289e-01  9.9915674559423773e-01  9.9915674559430800e-01  9.9915674559418444e-01  9.9915674559420165e-01  9.9915674559424883e-01  9.9915674559419787e-01  9.9915674559410872e-01  9.9915674559409318e-01  9.9915674559421974e-01  9.9915674559418355e-01  9.9915674559413858e-01  9.9915674559417855e-01  9.9915674559417633e-01  9.9915674559430057e-01  9.9915674559435463e-01  9.9915674559422374e-01  9.9915674559421686e-01  9.9915674559414780e-01  9.9915674559426215e-01  9.9915674559416834e-01  9.9915674559425649e-01  9.9915674559371581e-01  9.9884873009194897e-01  9.9884873009185171e-01  9.9884873009191222e-01  9.9884873009174335e-01  9.9884873009190422e-01  9.9884873009199238e-01  9.9884873009175779e-01  9.9884873009187325e-01  9.9884873009190289e-01  9.9884873009196595e-01  9.9884873009191599e-01  9.9884873009194686e-01  9.9884873009182951e-01  9.9884873009197761e-01  9.9884873009175046e-01  9.9884873009192920e-01  9.9884873009177688e-01  9.9884873009194708e-01  9.9884873009170294e-01  9.9884873009190001e-01  9.9884873009185293e-01  9.9884873009173569e-01  9.9884873009186070e-01  9.9884873009163011e-01  9.9884873009182029e-01  9.9884873009200748e-01  9.9884873009179664e-01  9.9884873009179875e-01  9.9884873009178587e-01  9.9884873009175779e-01  9.9884873009194897e-01  9.9873977897630339e-01  9.9873977897642252e-01  9.9873977897624622e-01  9.9873977897615651e-01  9.9873977897621946e-01  9.9873977897630872e-01  9.9873977897646093e-01  9.9873977897633992e-01  9.9873977897629818e-01  9.9873977897633393e-01  9.9873977897639576e-01  9.9873977897624899e-01  9.9873977897634891e-01  9.9873977897628319e-01  9.9873977897627353e-01  9.9873977897623867e-01  9.9873977897631683e-01  9.9873977897625654e-01  9.9873977897623645e-01  9.9873977897610378e-01  9.9873977897613408e-01  9.9873977897634414e-01  9.9873977897613542e-01  9.9873977897647803e-01  9.9873977897613631e-01  9.9873977897633126e-01  9.9873977897621480e-01  9.9873977897638444e-01  9.9873977897613664e-01  9.9873977897614530e-01  9.9873977897630339e-01  9.9884873009193409e-01  9.9884873009207120e-01  9.9884873009178432e-01  9.9884873009187725e-01  9.9884873009181407e-01  9.9884873009190112e-01  9.9884873009175978e-01  9.9884873009192954e-01  9.9884873009174824e-01  9.9884873009180342e-01  9.9884873009171737e-01  9.9884873009174968e-01  9.9884873009184949e-01  9.9884873009182740e-01  9.9884873009173558e-01  9.9884873009172703e-01  9.9884873009184194e-01  9.9884873009171393e-01  9.9884873009164743e-01  9.9884873009160446e-01  9.9884873009181807e-01  9.9884873009183339e-01  9.9884873009200337e-01  9.9884873009176800e-01  9.9884873009169950e-01  9.9884873009189112e-01  9.9884873009161113e-01  9.9884873009175335e-01  9.9884873009164021e-01  9.9884873009162833e-01  9.9884873009193409e-01  9.9915674559415113e-01  9.9915674559426149e-01  9.9915674559442447e-01  9.9915674559419121e-01  9.9915674559401502e-01  9.9915674559420220e-01  9.9915674559423262e-01  9.9915674559426015e-01  9.9915674559433232e-01  9.9915674559413115e-01  9.9915674559438128e-01  9.9915674559437706e-01  9.9915674559419676e-01  9.9915674559427781e-01  9.9915674559418466e-01  9.9915674559416023e-01  9.9915674559419809e-01  9.9915674559425194e-01  9.9915674559425527e-01  9.9915674559413370e-01  9.9915674559414014e-01  9.9915674559400491e-01  9.9915674559417078e-01  9.9915674559436851e-01  9.9915674559412548e-01  9.9915674559427348e-01  9.9915674559403378e-01  9.9915674559419909e-01  9.9915674559417411e-01  9.9915674559401702e-01  9.9915674559415113e-01  9.9961056860700770e-01  9.9961056860706421e-01  9.9961056860698627e-01  9.9961056860704900e-01  9.9961056860708908e-01  9.9961056860702402e-01  9.9961056860698849e-01  9.9961056860703013e-01  9.9961056860702180e-01  9.9961056860701336e-01  9.9961056860698883e-01  9.9961056860695086e-01  9.9961056860693887e-01  9.9961056860687314e-01  9.9961056860707975e-01  9.9961056860709663e-01  9.9961056860697273e-01  9.9961056860710296e-01  9.9961056860706632e-01  9.9961056860690245e-01  9.9961056860707931e-01  9.9961056860696640e-01  9.9961056860716180e-01  9.9961056860696296e-01  9.9961056860690378e-01  9.9961056860701047e-01  9.9961056860705466e-01  9.9961056860689279e-01  9.9961056860726860e-01  9.9961056860711905e-01  9.9961056860700770e-01  1.0001317305424791e+00  1.0001317305426656e+00  1.0001317305425117e+00  1.0001317305422555e+00  1.0001317305421513e+00  1.0001317305422550e+00  1.0001317305424595e+00  1.0001317305425150e+00  1.0001317305424922e+00  1.0001317305423336e+00  1.0001317305423079e+00  1.0001317305422557e+00  1.0001317305423976e+00  1.0001317305423021e+00  1.0001317305422621e+00  1.0001317305425144e+00  1.0001317305423296e+00  1.0001317305423638e+00  1.0001317305425255e+00  1.0001317305422492e+00  1.0001317305423827e+00  1.0001317305423720e+00  1.0001317305423965e+00  1.0001317305422863e+00  1.0001317305423094e+00  1.0001317305423518e+00  1.0001317305423225e+00  1.0001317305425519e+00  1.0001317305425397e+00  1.0001317305422355e+00  1.0001317305424791e+00  1.0006301180182828e+00  1.0006301180179635e+00  1.0006301180180859e+00  1.0006301180181461e+00  1.0006301180180723e+00  1.0006301180178581e+00  1.0006301180180206e+00  1.0006301180179853e+00  1.0006301180181132e+00  1.0006301180180921e+00  1.0006301180181354e+00  1.0006301180178936e+00  1.0006301180179484e+00  1.0006301180180319e+00  1.0006301180178010e+00  1.0006301180179116e+00  1.0006301180181043e+00  1.0006301180180461e+00  1.0006301180181765e+00  1.0006301180180062e+00  1.0006301180180706e+00  1.0006301180178681e+00  1.0006301180179988e+00  1.0006301180181416e+00  1.0006301180179860e+00  1.0006301180180683e+00  1.0006301180179089e+00  1.0006301180179691e+00  1.0006301180180055e+00  1.0006301180182766e+00  1.0006301180182828e+00  1.0010195541975049e+00  1.0010195541976226e+00  1.0010195541973366e+00  1.0010195541976494e+00  1.0010195541973010e+00  1.0010195541972704e+00  1.0010195541973665e+00  1.0010195541971951e+00  1.0010195541973474e+00  1.0010195541973275e+00  1.0010195541972591e+00  1.0010195541974252e+00  1.0010195541972988e+00  1.0010195541974150e+00  1.0010195541973208e+00  1.0010195541972449e+00  1.0010195541973008e+00  1.0010195541972433e+00  1.0010195541972031e+00  1.0010195541972926e+00  1.0010195541972542e+00  1.0010195541970910e+00  1.0010195541973723e+00  1.0010195541973974e+00  1.0010195541973532e+00  1.0010195541974305e+00  1.0010195541972220e+00  1.0010195541972862e+00  1.0010195541972267e+00  1.0010195541974864e+00  1.0010195541975049e+00  1.0012327003386752e+00  1.0012327003417913e+00  1.0012327003423473e+00  1.0012327003419186e+00  1.0012327003384338e+00  1.0012327003382726e+00  1.0012327003383765e+00  1.0012327003384562e+00  1.0012327003384356e+00  1.0012327003384973e+00  1.0012327003382990e+00  1.0012327003383235e+00  1.0012327003381558e+00  1.0012327003383754e+00  1.0012327003383550e+00  1.0012327003381272e+00  1.0012327003385406e+00  1.0012327003384016e+00  1.0012327003385049e+00  1.0012327003382253e+00  1.0012327003381998e+00  1.0012327003381671e+00  1.0012327003383930e+00  1.0012327003385513e+00  1.0012327003384793e+00  1.0012327003384152e+00  1.0012327003384187e+00  1.0012327003382719e+00  1.0012327003383408e+00  1.0012327003382511e+00  1.0012327003386752e+00  1.0012327003419768e+00  1.0012327003419383e+00  1.0012327003416186e+00  1.0012327003381980e+00  1.0012327003383241e+00  1.0012327003384434e+00  1.0012327003386490e+00  1.0012327003385220e+00  1.0012327003383972e+00  1.0012327003384247e+00  1.0012327003384063e+00  1.0012327003384882e+00  1.0012327003386337e+00  1.0012327003386898e+00  1.0012327003384844e+00  1.0012327003384376e+00  1.0012327003383841e+00  1.0012327003386228e+00  1.0012327003385300e+00  1.0012327003386610e+00  1.0012327003384986e+00  1.0012327003385262e+00  1.0012327003385566e+00  1.0012327003385140e+00  1.0012327003385677e+00  1.0012327003385815e+00  1.0012327003386745e+00  1.0012327003385473e+00  1.0012327003385022e+00  1.0012327003387278e+00  1.0012327003419768e+00  1.0010195541976332e+00  1.0010195541975657e+00  1.0010195541976883e+00  1.0010195541975180e+00  1.0010195541978215e+00  1.0010195541974045e+00  1.0010195541973932e+00  1.0010195541975111e+00  1.0010195541973532e+00  1.0010195541976037e+00  1.0010195541974247e+00  1.0010195541975417e+00  1.0010195541974471e+00  1.0010195541973947e+00  1.0010195541975944e+00  1.0010195541975080e+00  1.0010195541974580e+00  1.0010195541974369e+00  1.0010195541974751e+00  1.0010195541973159e+00  1.0010195541976392e+00  1.0010195541976641e+00  1.0010195541975271e+00  1.0010195541973255e+00  1.0010195541975089e+00  1.0010195541974363e+00  1.0010195541975777e+00  1.0010195541974074e+00  1.0010195541975118e+00  1.0010195541975038e+00  1.0010195541976332e+00  1.0006301180178157e+00  1.0006301180178203e+00  1.0006301180181241e+00  1.0006301180181258e+00  1.0006301180180923e+00  1.0006301180181876e+00  1.0006301180180019e+00  1.0006301180180939e+00  1.0006301180178949e+00  1.0006301180179733e+00  1.0006301180178849e+00  1.0006301180179729e+00  1.0006301180181187e+00  1.0006301180178001e+00  1.0006301180181032e+00  1.0006301180180388e+00  1.0006301180180830e+00  1.0006301180179840e+00  1.0006301180180641e+00  1.0006301180179156e+00  1.0006301180179318e+00  1.0006301180181225e+00  1.0006301180181505e+00  1.0006301180179646e+00  1.0006301180180439e+00  1.0006301180180148e+00  1.0006301180179369e+00  1.0006301180179726e+00  1.0006301180179653e+00  1.0006301180180543e+00  1.0006301180178157e+00  1.0001317305425836e+00  1.0001317305427508e+00  1.0001317305427386e+00  1.0001317305425368e+00  1.0001317305426118e+00  1.0001317305427608e+00  1.0001317305427919e+00  1.0001317305425552e+00  1.0001317305426323e+00  1.0001317305425041e+00  1.0001317305426229e+00  1.0001317305425290e+00  1.0001317305425830e+00  1.0001317305427293e+00  1.0001317305427235e+00  1.0001317305425115e+00  1.0001317305425581e+00  1.0001317305426998e+00  1.0001317305426314e+00  1.0001317305425788e+00  1.0001317305425637e+00  1.0001317305426942e+00  1.0001317305426005e+00  1.0001317305425947e+0