<?xml version="1.0"?>
<VTKFile type="UnstructuredGrid"  version="0.1"  >
<UnstructuredGrid>
<Piece  NumberOfPoints="961" NumberOfCells="1800">
<Points>
<DataArray  type="Float64"  NumberOfComponents="3"  format="ascii">0 0 0  0.03333333333333333 0 0  0.06666666666666667 0 0  0.1 0 0  0.1333333333333333 0 0  0.1666666666666667 0 0  0.2 0 0  0.2333333333333333 0 0  0.2666666666666667 0 0  0.3 0 0  0.3333333333333333 0 0  0.3666666666666666 0 0  0.4 0 0  0.4333333333333333 0 0  0.4666666666666667 0 0  0.5 0 0  0.5333333333333333 0 0  0.5666666666666667 0 0  0.6 0 0  0.6333333333333333 0 0  0.6666666666666666 0 0  0.7 0 0  0.7333333333333333 0 0  0.7666666666666667 0 0  0.8 0 0  0.8333333333333334 0 0  0.8666666666666667 0 0  0.9 0 0  0.9333333333333333 0 0  0.9666666666666667 0 0  1 0 0  0 0.03333333333333333 0  0.03333333333333333 0.03333333333333333 0  0.06666666666666667 0.03333333333333333 0  0.1 0.03333333333333333 0  0.1333333333333333 0.03333333333333333 0  0.1666666666666667 0.03333333333333333 0  0.2 0.03333333333333333 0  0.2333333333333333 0.03333333333333333 0  0.2666666666666667 0.03333333333333333 0  0.3 0.03333333333333333 0  0.3333333333333333 0.03333333333333333 0  0.3666666666666666 0.03333333333333333 0  0.4 0.03333333333333333 0  0.4333333333333333 0.03333333333333333 0  0.4666666666666667 0.03333333333333333 0  0.5 0.03333333333333333 0  0.5333333333333333 0.03333333333333333 0  0.5666666666666667 0.03333333333333333 0  0.6 0.03333333333333333 0  0.6333333333333333 0.03333333333333333 0  0.6666666666666666 0.03333333333333333 0  0.7 0.03333333333333333 0  0.7333333333333333 0.03333333333333333 0  0.7666666666666667 0.03333333333333333 0  0.8 0.03333333333333333 0  0.8333333333333334 0.03333333333333333 0  0.8666666666666667 0.03333333333333333 0  0.9 0.03333333333333333 0  0.9333333333333333 0.03333333333333333 0  0.9666666666666667 0.03333333333333333 0  1 0.03333333333333333 0  0 0.06666666666666667 0  0.03333333333333333 0.06666666666666667 0  0.06666666666666667 0.06666666666666667 0  0.1 0.06666666666666667 0  0.1333333333333333 0.06666666666666667 0  0.1666666666666667 0.06666666666666667 0  0.2 0.06666666666666667 0  0.2333333333333333 0.06666666666666667 0  0.2666666666666667 0.06666666666666667 0  0.3 0.06666666666666667 0  0.3333333333333333 0.06666666666666667 0  0.3666666666666666 0.06666666666666667 0  0.4 0.06666666666666667 0  0.4333333333333333 0.06666666666666667 0  0.4666666666666667 0.06666666666666667 0  0.5 0.06666666666666667 0  0.5333333333333333 0.06666666666666667 0  0.5666666666666667 0.06666666666666667 0  0.6 0.06666666666666667 0  0.6333333333333333 0.06666666666666667 0  0.6666666666666666 0.06666666666666667 0  0.7 0.06666666666666667 0  0.7333333333333333 0.06666666666666667 0  0.7666666666666667 0.06666666666666667 0  0.8 0.06666666666666667 0  0.8333333333333334 0.06666666666666667 0  0.8666666666666667 0.06666666666666667 0  0.9 0.06666666666666667 0  0.9333333333333333 0.06666666666666667 0  0.9666666666666667 0.06666666666666667 0  1 0.06666666666666667 0  0 0.1 0  0.03333333333333333 0.1 0  0.06666666666666667 0.1 0  0.1 0.1 0  0.1333333333333333 0.1 0  0.1666666666666667 0.1 0  0.2 0.1 0  0.2333333333333333 0.1 0  0.2666666666666667 0.1 0  0.3 0.1 0  0.3333333333333333 0.1 0  0.3666666666666666 0.1 0  0.4 0.1 0  0.4333333333333333 0.1 0  0.4666666666666667 0.1 0  0.5 0.1 0  0.5333333333333333 0.1 0  0.5666666666666667 0.1 0  0.6 0.1 0  0.6333333333333333 0.1 0  0.6666666666666666 0.1 0  0.7 0.1 0  0.7333333333333333 0.1 0  0.7666666666666667 0.1 0  0.8 0.1 0  0.8333333333333334 0.1 0  0.8666666666666667 0.1 0  0.9 0.1 0  0.9333333333333333 0.1 0  0.9666666666666667 0.1 0  1 0.1 0  0 0.1333333333333333 0  0.03333333333333333 0.1333333333333333 0  0.06666666666666667 0.1333333333333333 0  0.1 0.1333333333333333 0  0.1333333333333333 0.1333333333333333 0  0.1666666666666667 0.1333333333333333 0  0.2 0.1333333333333333 0  0.2333333333333333 0.1333333333333333 0  0.2666666666666667 0.1333333333333333 0  0.3 0.1333333333333333 0  0.3333333333333333 0.1333333333333333 0  0.3666666666666666 0.1333333333333333 0  0.4 0.1333333333333333 0  0.4333333333333333 0.1333333333333333 0  0.4666666666666667 0.1333333333333333 0  0.5 0.1333333333333333 0  0.5333333333333333 0.1333333333333333 0  0.5666666666666667 0.1333333333333333 0  0.6 0.1333333333333333 0  0.6333333333333333 0.1333333333333333 0  0.6666666666666666 0.1333333333333333 0  0.7 0.1333333333333333 0  0.7333333333333333 0.1333333333333333 0  0.7666666666666667 0.1333333333333333 0  0.8 0.1333333333333333 0  0.8333333333333334 0.1333333333333333 0  0.8666666666666667 0.1333333333333333 0  0.9 0.1333333333333333 0  0.9333333333333333 0.1333333333333333 0  0.9666666666666667 0.1333333333333333 0  1 0.1333333333333333 0  0 0.1666666666666667 0  0.03333333333333333 0.1666666666666667 0  0.06666666666666667 0.1666666666666667 0  0.1 0.1666666666666667 0  0.1333333333333333 0.1666666666666667 0  0.1666666666666667 0.1666666666666667 0  0.2 0.1666666666666667 0  0.2333333333333333 0.1666666666666667 0  0.2666666666666667 0.1666666666666667 0  0.3 0.1666666666666667 0  0.3333333333333333 0.1666666666666667 0  0.3666666666666666 0.1666666666666667 0  0.4 0.1666666666666667 0  0.4333333333333333 0.1666666666666667 0  0.4666666666666667 0.1666666666666667 0  0.5 0.1666666666666667 0  0.5333333333333333 0.1666666666666667 0  0.5666666666666667 0.1666666666666667 0  0.6 0.1666666666666667 0  0.6333333333333333 0.1666666666666667 0  0.6666666666666666 0.1666666666666667 0  0.7 0.1666666666666667 0  0.7333333333333333 0.1666666666666667 0  0.7666666666666667 0.1666666666666667 0  0.8 0.1666666666666667 0  0.8333333333333334 0.1666666666666667 0  0.8666666666666667 0.1666666666666667 0  0.9 0.1666666666666667 0  0.9333333333333333 0.1666666666666667 0  0.9666666666666667 0.1666666666666667 0  1 0.1666666666666667 0  0 0.2 0  0.03333333333333333 0.2 0  0.06666666666666667 0.2 0  0.1 0.2 0  0.1333333333333333 0.2 0  0.1666666666666667 0.2 0  0.2 0.2 0  0.2333333333333333 0.2 0  0.2666666666666667 0.2 0  0.3 0.2 0  0.3333333333333333 0.2 0  0.3666666666666666 0.2 0  0.4 0.2 0  0.4333333333333333 0.2 0  0.4666666666666667 0.2 0  0.5 0.2 0  0.5333333333333333 0.2 0  0.5666666666666667 0.2 0  0.6 0.2 0  0.6333333333333333 0.2 0  0.6666666666666666 0.2 0  0.7 0.2 0  0.7333333333333333 0.2 0  0.7666666666666667 0.2 0  0.8 0.2 0  0.8333333333333334 0.2 0  0.8666666666666667 0.2 0  0.9 0.2 0  0.9333333333333333 0.2 0  0.9666666666666667 0.2 0  1 0.2 0  0 0.2333333333333333 0  0.03333333333333333 0.2333333333333333 0  0.06666666666666667 0.2333333333333333 0  0.1 0.2333333333333333 0  0.1333333333333333 0.2333333333333333 0  0.1666666666666667 0.2333333333333333 0  0.2 0.2333333333333333 0  0.2333333333333333 0.2333333333333333 0  0.2666666666666667 0.2333333333333333 0  0.3 0.2333333333333333 0  0.3333333333333333 0.2333333333333333 0  0.3666666666666666 0.2333333333333333 0  0.4 0.2333333333333333 0  0.4333333333333333 0.2333333333333333 0  0.4666666666666667 0.2333333333333333 0  0.5 0.2333333333333333 0  0.5333333333333333 0.2333333333333333 0  0.5666666666666667 0.2333333333333333 0  0.6 0.2333333333333333 0  0.6333333333333333 0.2333333333333333 0  0.6666666666666666 0.2333333333333333 0  0.7 0.2333333333333333 0  0.7333333333333333 0.2333333333333333 0  0.7666666666666667 0.2333333333333333 0  0.8 0.2333333333333333 0  0.8333333333333334 0.2333333333333333 0  0.8666666666666667 0.2333333333333333 0  0.9 0.2333333333333333 0  0.9333333333333333 0.2333333333333333 0  0.9666666666666667 0.2333333333333333 0  1 0.2333333333333333 0  0 0.2666666666666667 0  0.03333333333333333 0.2666666666666667 0  0.06666666666666667 0.2666666666666667 0  0.1 0.2666666666666667 0  0.1333333333333333 0.2666666666666667 0  0.1666666666666667 0.2666666666666667 0  0.2 0.2666666666666667 0  0.2333333333333333 0.2666666666666667 0  0.2666666666666667 0.2666666666666667 0  0.3 0.2666666666666667 0  0.3333333333333333 0.2666666666666667 0  0.3666666666666666 0.2666666666666667 0  0.4 0.2666666666666667 0  0.4333333333333333 0.2666666666666667 0  0.4666666666666667 0.2666666666666667 0  0.5 0.2666666666666667 0  0.5333333333333333 0.2666666666666667 0  0.5666666666666667 0.2666666666666667 0  0.6 0.2666666666666667 0  0.6333333333333333 0.2666666666666667 0  0.6666666666666666 0.2666666666666667 0  0.7 0.2666666666666667 0  0.7333333333333333 0.2666666666666667 0  0.7666666666666667 0.2666666666666667 0  0.8 0.2666666666666667 0  0.8333333333333334 0.2666666666666667 0  0.8666666666666667 0.2666666666666667 0  0.9 0.2666666666666667 0  0.9333333333333333 0.2666666666666667 0  0.9666666666666667 0.2666666666666667 0  1 0.2666666666666667 0  0 0.3 0  0.03333333333333333 0.3 0  0.06666666666666667 0.3 0  0.1 0.3 0  0.1333333333333333 0.3 0  0.1666666666666667 0.3 0  0.2 0.3 0  0.2333333333333333 0.3 0  0.2666666666666667 0.3 0  0.3 0.3 0  0.3333333333333333 0.3 0  0.3666666666666666 0.3 0  0.4 0.3 0  0.4333333333333333 0.3 0  0.4666666666666667 0.3 0  0.5 0.3 0  0.5333333333333333 0.3 0  0.5666666666666667 0.3 0  0.6 0.3 0  0.6333333333333333 0.3 0  0.6666666666666666 0.3 0  0.7 0.3 0  0.7333333333333333 0.3 0  0.7666666666666667 0.3 0  0.8 0.3 0  0.8333333333333334 0.3 0  0.8666666666666667 0.3 0  0.9 0.3 0  0.9333333333333333 0.3 0  0.9666666666666667 0.3 0  1 0.3 0  0 0.3333333333333333 0  0.03333333333333333 0.3333333333333333 0  0.06666666666666667 0.3333333333333333 0  0.1 0.3333333333333333 0  0.1333333333333333 0.3333333333333333 0  0.1666666666666667 0.3333333333333333 0  0.2 0.3333333333333333 0  0.2333333333333333 0.3333333333333333 0  0.2666666666666667 0.3333333333333333 0  0.3 0.3333333333333333 0  0.3333333333333333 0.3333333333333333 0  0.3666666666666666 0.3333333333333333 0  0.4 0.3333333333333333 0  0.4333333333333333 0.3333333333333333 0  0.4666666666666667 0.3333333333333333 0  0.5 0.3333333333333333 0  0.5333333333333333 0.33333333333333
[...]
<PointData  Vectors="u_f"> 
<DataArray  type="Float64"  Name="u_f"  NumberOfComponents="3" format="ascii">2.7098043177325786e-06 3.9569554908082741e-09 0.0000000000000000e+00  2.7098043103215147e-06 3.9569553818459557e-09 0.0000000000000000e+00  2.7098043257518258e-06 3.9569526390312998e-09 0.0000000000000000e+00  2.7098043084365208e-06 3.9569587923665196e-09 0.0000000000000000e+00  2.7098043346024392e-06 3.9569597735694857e-09 0.0000000000000000e+00  2.7098043025057181e-06 3.9569342611539549e-09 0.0000000000000000e+00  2.7098043111180238e-06 3.9569665099886339e-09 0.0000000000000000e+00  2.7098043269025980e-06 3.9569804764641794e-09 0.0000000000000000e+00  2.7098043233332960e-06 3.9569505804024248e-09 0.0000000000000000e+00  2.7098043151155314e-06 3.9569464380996046e-09 0.0000000000000000e+00  2.7098043140555070e-06 3.9569668862067878e-09 0.0000000000000000e+00  2.7098042917712492e-06 3.9568697692308683e-09 0.0000000000000000e+00  2.7098042733444743e-06 3.9569375847757146e-09 0.0000000000000000e+00  2.7098043023458525e-06 3.9569631586655087e-09 0.0000000000000000e+00  2.7098043323732111e-06 3.9569590140858639e-09 0.0000000000000000e+00  2.7098043137742649e-06 3.9569640903204355e-09 0.0000000000000000e+00  2.7098043224917925e-06 3.9569435249567873e-09 0.0000000000000000e+00  2.7098043173004157e-06 3.9569523729138766e-09 0.0000000000000000e+00  2.7098043301507593e-06 3.9569588924383801e-09 0.0000000000000000e+00  2.7098043219369520e-06 3.9569416178993760e-09 0.0000000000000000e+00  2.7098043034945105e-06 3.9569441958068816e-09 0.0000000000000000e+00  2.7098043287797856e-06 3.9569607273421369e-09 0.0000000000000000e+00  2.7098043616648301e-06 3.9570497545977565e-09 0.0000000000000000e+00  2.7098043773919958e-06 3.9569769522650178e-09 0.0000000000000000e+00  2.7098043164351139e-06 3.9569785154677101e-09 0.0000000000000000e+00  2.7098043251664108e-06 3.9569512059870783e-09 0.0000000000000000e+00  2.7098043133019323e-06 3.9569464396716977e-09 0.0000000000000000e+00  2.7098043374567098e-06 3.9569562862874080e-09 0.0000000000000000e+00  2.7098043111633435e-06 3.9569601323319846e-09 0.0000000000000000e+00  2.7098043278956730e-06 3.9569648656334090e-09 0.0000000000000000e+00  2.7098043177326329e-06 -9.5902795358398491e-10 0.0000000000000000e+00  4.1705389702827546e-04 7.7365161883172912e-09 0.0000000000000000e+00  4.1705389705798228e-04 7.7365075309629439e-09 0.0000000000000000e+00  4.1705389705517322e-04 7.7365064790699961e-09 0.0000000000000000e+00  4.1705389704390131e-04 7.7365150632406968e-09 0.0000000000000000e+00  4.1705389705421945e-04 7.7365122435561068e-09 0.0000000000000000e+00  4.1705389705182455e-04 7.7365022030850480e-09 0.0000000000000000e+00  4.1705389705083630e-04 7.7364925531436118e-09 0.0000000000000000e+00  4.1705389703192706e-04 7.7364821704983475e-09 0.0000000000000000e+00  4.1705389705577658e-04 7.7364968001803619e-09 0.0000000000000000e+00  4.1705389703489875e-04 7.7364968792187003e-09 0.0000000000000000e+00  4.1705389703724258e-04 7.7364939193467694e-09 0.0000000000000000e+00  4.1705389698902355e-04 7.7364261876107510e-09 0.0000000000000000e+00  4.1705389700818466e-04 7.7364826789891664e-09 0.0000000000000000e+00  4.1705389705315704e-04 7.7364812339645109e-09 0.0000000000000000e+00  4.1705389703542621e-04 7.7364842387224117e-09 0.0000000000000000e+00  4.1705389705016702e-04 7.7365005111875579e-09 0.0000000000000000e+00  4.1705389704238603e-04 7.7365010127394829e-09 0.0000000000000000e+00  4.1705389703974849e-04 7.7365079874120585e-09 0.0000000000000000e+00  4.1705389705093735e-04 7.7365037975127629e-09 0.0000000000000000e+00  4.1705389705045792e-04 7.7365091796007673e-09 0.0000000000000000e+00  4.1705389705189546e-04 7.7364802201270594e-09 0.0000000000000000e+00  4.1705389704433965e-04 7.7364855694721582e-09 0.0000000000000000e+00  4.1705389710375664e-04 7.7365669713712684e-09 0.0000000000000000e+00  4.1705389709031655e-04 7.7365206155484423e-09 0.0000000000000000e+00  4.1705389705546910e-04 7.7364894439770418e-09 0.0000000000000000e+00  4.1705389705992961e-04 7.7364974025630889e-09 0.0000000000000000e+00  4.1705389703809411e-04 7.7365020803533621e-09 0.0000000000000000e+00  4.1705389703571830e-04 7.7365098975594460e-09 0.0000000000000000e+00  4.1705389705649790e-04 7.7365056653762657e-09 0.0000000000000000e+00  4.1705389704944278e-04 7.7364738298394548e-09 0.0000000000000000e+00  4.1705389702827568e-04 -2.6593731286370365e-09 0.0000000000000000e+00  7.5928553383546071e-04 9.9940027309614390e-09 0.0000000000000000e+00  7.5928553384298257e-04 9.9939851076888062e-09 0.0000000000000000e+00  7.5928553383628546e-04 9.9940018948247236e-09 0.0000000000000000e+00  7.5928553384789791e-04 9.9940002642930764e-09 0.0000000000000000e+00  7.5928553382540180e-04 9.9939820026422044e-09 0.0000000000000000e+00  7.5928553384373924e-04 9.9939944652209164e-09 0.0000000000000000e+00  7.5928553383328048e-04 9.9940104729238921e-09 0.0000000000000000e+00  7.5928553385633062e-04 9.9940036375712957e-09 0.0000000000000000e+00  7.5928553383603457e-04 9.9939948845903168e-09 0.0000000000000000e+00  7.5928553383606049e-04 9.9939971474286710e-09 0.0000000000000000e+00  7.5928553384909639e-04 9.9940265262717792e-09 0.0000000000000000e+00  7.5928553377971851e-04 9.9939111745332015e-09 0.0000000000000000e+00  7.5928553378379641e-04 9.9940117274542259e-09 0.0000000000000000e+00  7.5928553384567660e-04 9.9940071180771098e-09 0.0000000000000000e+00  7.5928553383371601e-04 9.9939994563456175e-09 0.0000000000000000e+00  7.5928553383328580e-04 9.9940019799345942e-09 0.0000000000000000e+00  7.5928553384977987e-04 9.9940023107246770e-09 0.0000000000000000e+00  7.5928553383049192e-04 9.9939978200676988e-09 0.0000000000000000e+00  7.5928553383829373e-04 9.9940002638593955e-09 0.0000000000000000e+00  7.5928553384186932e-04 9.9939874144373483e-09 0.0000000000000000e+00  7.5928553383813511e-04 9.9939953069954832e-09 0.0000000000000000e+00  7.5928553383347694e-04 9.9939827047715313e-09 0.0000000000000000e+00  7.5928553389507740e-04 9.9940990257868512e-09 0.0000000000000000e+00  7.5928553388753418e-04 9.9940204208040853e-09 0.0000000000000000e+00  7.5928553383383462e-04 9.9940223872215656e-09 0.0000000000000000e+00  7.5928553386340309e-04 9.9940155647709750e-09 0.0000000000000000e+00  7.5928553384687670e-04 9.9940029631975444e-09 0.0000000000000000e+00  7.5928553383859774e-04 9.9940163321692727e-09 0.0000000000000000e+00  7.5928553384784641e-04 9.9939943809784076e-09 0.0000000000000000e+00  7.5928553383891985e-04 9.9939999837015542e-09 0.0000000000000000e+00  7.5928553383546114e-04 -3.7981361245330717e-09 0.0000000000000000e+00  9.7022986597947538e-04 1.0651292666006423e-08 0.0000000000000000e+00  9.7022986598153081e-04 1.0651311291949225e-08 0.0000000000000000e+00  9.7022986599844328e-04 1.0651294826604513e-08 0.0000000000000000e+00  9.7022986597740933e-04 1.0651297599993670e-08 0.0000000000000000e+00  9.7022986599404055e-04 1.0651308032403814e-08 0.0000000000000000e+00  9.7022986597864206e-04 1.0651321237986275e-08 0.0000000000000000e+00  9.7022986600483682e-04 1.0651314947228430e-08 0.0000000000000000e+00  9.7022986599362444e-04 1.0651308633702339e-08 0.0000000000000000e+00  9.7022986600486848e-04 1.0651323320738648e-08 0.0000000000000000e+00  9.7022986598701449e-04 1.0651319787540608e-08 0.0000000000000000e+00  9.7022986600554741e-04 1.0651292743635299e-08 0.0000000000000000e+00  9.7022986593152047e-04 1.0651327630008603e-08 0.0000000000000000e+00  9.7022986601225558e-04 1.0651297787777486e-08 0.0000000000000000e+00  9.7022986599063117e-04 1.0651291010863387e-08 0.0000000000000000e+00  9.7022986597900007e-04 1.0651325548774113e-08 0.0000000000000000e+00  9.7022986599919615e-04 1.0651305899994981e-08 0.0000000000000000e+00  9.7022986598782786e-04 1.0651296336898139e-08 0.0000000000000000e+00  9.7022986598331779e-04 1.0651300760443003e-08 0.0000000000000000e+00  9.7022986598042970e-04 1.0651303058301087e-08 0.0000000000000000e+00  9.7022986599254327e-04 1.0651306314377051e-08 0.0000000000000000e+00  9.7022986599327055e-04 1.0651305984562751e-08 0.0000000000000000e+00  9.7022986598955326e-04 1.0651322889226184e-08 0.0000000000000000e+00  9.7022986603422000e-04 1.0651271087347425e-08 0.0000000000000000e+00  9.7022986596764565e-04 1.0651310111036219e-08 0.0000000000000000e+00  9.7022986598885546e-04 1.0651306905917757e-08 0.0000000000000000e+00  9.7022986599308732e-04 1.0651312523602893e-08 0.0000000000000000e+00  9.7022986599591275e-04 1.0651311562999768e-08 0.0000000000000000e+00  9.7022986599449960e-04 1.0651308790044292e-08 0.0000000000000000e+00  9.7022986599767827e-04 1.0651330360246514e-08 0.0000000000000000e+00  9.7022986599502111e-04 1.0651298385172883e-08 0.0000000000000000e+00  9.7022986597947582e-04 -4.2734682880703640e-09 0.0000000000000000e+00  1.0134127560425621e-03 9.7752989544099000e-09 0.0000000000000000e+00  1.0134127560577535e-03 9.7753020064390156e-09 0.0000000000000000e+00  1.0134127560546789e-03 9.7752875894774674e-09 0.0000000000000000e+00  1.0134127560551712e-03 9.7752872657346987e-09 0.0000000000000000e+00  1.0134127560466886e-03 9.7752827930754765e-09 0.0000000000000000e+00  1.0134127560561738e-03 9.7752958314739624e-09 0.0000000000000000e+00  1.0134127560619867e-03 9.7753134220036897e-09 0.0000000000000000e+00  1.0134127560612284e-03 9.7753194824769934e-09 0.0000000000000000e+00  1.0134127560633213e-03 9.7752848030778841e-09 0.0000000000000000e+00  1.0134127560541650e-03 9.7753096009499732e-09 0.0000000000000000e+00  1.0134127560624756e-03 9.7753104722148390e-09 0.0000000000000000e+00  1.0134127560611551e-03 9.7753237777607402e-09 0.0000000000000000e+00  1.0134127560727669e-03 9.7753486612848009e-09 0.0000000000000000e+00  1.0134127560624600e-03 9.7753194697918280e-09 0.0000000000000000e+00  1.0134127560647277e-03 9.7753283514676048e-09 0.0000000000000000e+00  1.0134127560817194e-03 9.7753213823244603e-09 0.0000000000000000e+00  1.0134127560345236e-03 9.7752887238782005e-09 0.0000000000000000e+00  1.0134127560414547e-03 9.7753048330624995e-09 0.0000000000000000e+00  1.0134127560527920e-03 9.7752924265370397e-09 0.0000000000000000e+00  1.0134127560566392e-03 9.7753005853752281e-09 0.0000000000000000e+00  1.0134127560622599e-03 9.7752971964844976e-09 0.0000000000000000e+00  1.0134127560478914e-03 9.7752859444175111e-09 0.0000000000000000e+00  1.0134127560526740e-03 9.7753102261009459e-09 0.0000000000000000e+00  1.0134127560567545e-03 9.7753253390118686e-09 0.0000000000000000e+00  1.0134127560736382e-03 9.7753119187573775e-09 0.0000000000000000e+00  1.0134127560477053e-03 9.7753135422417106e-09 0.0000000000000000e+00  1.0134127560637290e-03 9.7753047500126131e-09 0.0000000000000000e+00  1.0134127560541841e-03 9.7752876614684917e-09 0.0000000000000000e+00  1.0134127560543446e-03 9.7753189859123985e-09 0.0000000000000000e+00  1.0134127560556261e-03 9.7752973051215553e-09 0.0000000000000000e+00  1.0134127560425623e-03 -4.0859198874212442e-09 0.0000000000000000e+00  8.8136745183981131e-04 7.4470205967559072e-09 0.0000000000000000e+00  8.8136745184858381e-04 7.4470347874444620e-09 0.0000000000000000e+00  8.8136745185915565e-04 7.4470155003551752e-09 0.0000000000000000e+00  8.8136745185188141e-04 7.4470244001371283e-09 0.0000000000000000e+00  8.8136745186012059e-04 7.4470141712317320e-09 0.0000000000000000e+00  8.8136745184042584e-04 7.4470154112337567e-09 0.0000000000000000e+00  8.8136745186003949e-04 7.4470279528508071e-09 0.0000000000000000e+00  8.8136745185637890e-04 7.4469880208174327e-09 0.0000000000000000e+00  8.8136745184711125e-04 7.4470105689700139e-09 0.0000000000000000e+00  8.8136745185061647e-04 7.4470103642726437e-09 0.0000000000000000e+00  8.8136745185018030e-04 7.4470141516076727e-09 0.0000000000000000e+00  8.8136745186036323e-04 7.4470260773978891e-09 0.0000000000000000e+00  8.8136745185338477e-04 7.4470171260079127e-09 0.0000000000000000e+00  8.8136745185815385e-04 7.4470213272913310e-09 0.0000000000000000e+00  8.8136745185502603e-04 7.4470034317755326e-09 0.0000000000000000e+00  8.8136745185071199e-04 7.4470116081777962e-09 0.0000000000000000e+00  8.8136745185867361e-04 7.4470132854385571e-09 0.0000000000000000e+00  8.8136745184463070e-04 7.4470033009123304e-09 0.0000000000000000e+00  8.8136745185213056e-04 7.4470262099958148e-09 0.0000000000000000e+00  8.8136745187584054e-04 7.4470214321336811e-09 0.0000000000000000e+00  8.8136745184307661e-04 7.4470226077340967e-09 0.0000000000000000e+00  8.8136745185587518e-04 7.4470058985523155e-09 0.0000000000000000e+00  8.8136745184629463e-04 7.4470213108114580e-09 0.0000000000000000e+00  8.8136745185804380e-04 7.4470169524271448e-09 0.0000000000000000e+00  8.8136745185445195e-04 7.4470141126848147e-09 0.0000000000000000e+00  8.8136745187529216e-04 7.4470232553280544e-09 0.0000000000000000e+00  8.8136745184320812e-04 7.4470196750756404e-09 0.0000000000000000e+00  8.8136745185811687e-04 7.4470363823058577e-09 0.0000000000000000e+00  8.8136745186281776e-04 7.4470230448844127e-09 0.0000000000000000e+00  8.8136745186271031e-04 7.4470174098520414e-09 0.0000000000000000e+00  8.8136745183981153e-04 -3.2838557056215477e-09 0.0000000000000000e+00  5.9692568055986486e-04 3.7945147364384750e-09 0.0000000000000000e+00  5.9692568057131512e-04 3.7944988465340654e-09 0.0000000000000000e+00  5.9692568055630607e-04 3.7945109939352059e-09 0.0000000000000000e+00  5.9692568056202101e-04 3.7945058721641431e-09 0.0000000000000000e+00  5.9692568054486752e-04 3.7945119062371239e-09 0.0000000000000000e+00  5.9692568056475982e-04 3.7945006141630773e-09 0.0000000000000000e+00  5.9692568056471385e-04 3.7945001302836477e-09 0.0000000000000000e+00  5.9692568054961872e-04 3.7945251650539115e-09 0.0000000000000000e+00  5.9692568055474981e-04 3.7944950975255833e-09 0.0000000000000000e+00  5.9692568055413247e-04 3.7945128905842763e-09 0.0000000000000000e+00  5.9692568055215943e-04 3.7945162892328264e-09 0.0000000000000000e+00  5.9692568056982304e-04 3.7945012486923987e-09 0.0000000000000000e+00  5.9692568055744882e-04 3.7945178479360797e-09 0.0000000000000000e+00  5.9692568056336813e-04 3.7945068789000704e-09 0.0000000000000000e+00  5.9692568056174346e-04 3.7945187305850683e-09 0.0000000000000000e+00  5.9692568054972714e-04 3.7945218786202863e-09 0.0000000000000000e+00  5.9692568057349534e-04 3.7945196927060762e-09 0.0000000000000000e+00  5.9692568054607587e-04 3.7944901964438726e-09 0.0000000000000000e+00  5.9692568055828019e-04 3.7945181509705869e-09 0.0000000000000000e+00  5.9692568056872518e-04 3.7945259460047363e-09 0.0000000000000000e+00  5.9692568057009214e-04 3.7945015561179248e-09 0.0000000000000000e+00  5.9692568055501045e-04 3.7945246813913223e-09 0.0000000000000000e+00  5.9692568055568634e-04 3.7944971500287160e-09 0.0000000000000000e+00  5.9692568055421660e-04 3.7944907624516168e-09 0.0000000000000000e+00  5.9692568056347655e-04 3.7945033122543936e-09 0.0000000000000000e+00  5.9692568055880310e-04 3.7944764380267240e-09 0.0000000000000000e+00  5.9692568054191069e-04 3.7945087245916387e-09 0.0000000000000000e+00  5.9692568056728883e-04 3.7944978577958942e-09 0.0000000000000000e+00  5.9692568055689805e-04 3.7945078264385590e-09 0.0000000000000000e+00  5.9692568054711237e-04 3.7945273833857665e-09 0.0000000000000000e+00  5.9692568055986508e-04 -1.9457504629869602e-09 0.0000000000000000e+00  2.0926990521930163e-04 -8.4746735922792450e-10 0.0000000000000000e+00  2.0926990522858929e-04 -8.4745962635921716e-10 0.0000000000000000e+00  2.0926990522601678e-04 -8.4748117391516588e-10 0.0000000000000000e+00  2.0926990521131784e-04 -8.4746287639075445e-10 0.0000000000000000e+00  2.0926990522042270e-04 -8.4746867215609780e-10 0.0000000000000000e+00  2.0926990521574236e-04 -8.4746674356372086e-10 0.0000000000000000e+00  2.0926990523469563e-04 -8.4747583054673153e-10 0.0000000000000000e+00  2.0926990520491915e-04 -8.4747420755028943e-10 0.0000000000000000e+00  2.0926990522380530e-04 -8.4745950212320072e-10 0.0000000000000000e+00  2.0926990522827615e-04 -8.4746304022725524e-10 0.0000000000000000e+00  2.0926990522781051e-04 -8.4746020465910343e-10 0.0000000000000000e+00  2.0926990522300226e-04 -8.4746272827518516e-10 0.0000000000000000e+00  2.0926990520899841e-04 -8.4747804423006973e-10 0.0000000000000000e+00  2.0926990523308190e-04 -8.4745912339782934e-10 0.0000000000000000e+00  2.0926990521866583e-04 -8.4746399315964970e-10 0.0000000000000000e+00  2.0926990522822202e-04 -8.4746374959363165e-10 0.0000000000000000e+00  2.0926990521816013e-04 -8.4746908194386142e-10 0.0000000000000000e+00  2.0926990522775614e-04 -8.4748631540515571e-10 0.0000000000000000e+00  2.0926990520795757e-04 -8.4747537866481856e-10 0.0000000000000000e+00  2.0926990522404722e-04 -8.4745500512363979e-10 0.0000000000000000e+00  2.0926990523189256e-04 -8.4744228607690382e-10 0.0000000000000000e+00  2.0926990522218399e-04 -8.4746353276674968e-10 0.0000000000000000e+00  2.0926990523243206e-04 -8.4746046505736021e-10 0.0000000000000000e+00  2.0926990521665171e-04 -8.4747731458911270e-10 0.0000000000000000e+00  2.0926990521332847e-04 -8.4747941325215292e-10 0.0000000000000000e+00  2.0926990521926651e-04 -8.4746000951626491e-10 0.0000000000000000e+00  2.0926990522904151e-04 -8.4746029821219839e-10 0.0000000000000000e+00  2.0926990522184805e-04 -8.4746436600322429e-10 0.0000000000000000e+00  2.0926990522584393e-04 -8.4746849776217836e-10 0.0000000000000000e+00  2.0926990522140049e-04 -8.4745730635630342e-10 0.0000000000000000e+00  2.0926990521930166e-04 -2.0715898864361465e-10 0.0000000000000000e+00  -2.1457070129237256e-04 -5.7994222137807729e-09 0.0000000000000000e+00  -2.1457070128572776e-04 -5.7994168697482647e-09 0.0000000000000000e+00  -2.1457070128652139e-04 -5.7994209641835590e-09 0.0000000000000000e+00  -2.1457070129097101e-04 -5.7994183623693955e-09 0.0000000000000000e+00  -2.1457070128742025e-04 -5.7994340349996898e-09 0.0000000000000000e+00  -2.1457070128833548e-04 -5.7994275321718997e-09 0.0000000000000000e+00  -2.1457070129324627e-04 -5.7994152849699492e-09 0.0000000000000000e+00  -2.1457070128869809e-04 -5.7994367455593311e-09 0.0000000000000000e+00  -2.1457070130659838e-04 -5.7994384589782344e-09 0.0000000000000000e+00  -2.1457070128978446e-04 -5.7994173642528755e-09 0.0000000000000000e+00  -2.1457070128609834e-04 -5.7994216222400675e-09 0.0000000000000000e+00  -2.1457070128426083e-04 -5.7994166169665282e-09 0.0000000000000000e+00  -2.1457070128772361e-04 -5.7994122320734719e-09 0.0000000000000000e+00  -2.1457070127090070e-04 -5.7994138861865163e-09 0.0000000000000000e+00  -2.1457070129798277e-04 -5.7994161606800439e-09 0.0000000000000000e+00  -2.1457070127312299e-04 -5.7994275148788750e-09 0.0000000000000000e+00  -2.1457070130663166e-04 -5.7994150169551721e-09 0.0000000000000000e+00  -2.1457070127626679e-04 -5.7994162733286496e-09 0.0000000000000000e+00  -2.1457070127849028e-04 -5.7994393447171992e-09 0.0000000000000000e+00  -2.1457070130326690e-04 -5.7994398729947078e-09 0.0000000000000000e+00  -2.1457070129054709e-04 -5.7994246627766401e-09 0.0000000000000000e+00  -2.1457070129273030e-04 -5.7994434572044597e-09 0.0000000000000000e+00  -2.1457070129836950e-04 -5.7994278160702385e-09 0.0000000000000000e+00  -2.1457070129262800e-04 -5.7994214451356427e-09 0.0000000000000000e+00  -2.1457070128385209e-04 -5.7994204497838382e-09 0.0000000000000000e+00  -2.1457070128296104e-04 -5.7993990740874864e-09 0.0000000000000000e+00  -2.1457070128559635e-04 -5.7994068511780898e-09 0.0000000000000000e+00  -2.1457070129291878e-04 -5.7994144093140645e-09 0.0000000000000000e+00  -2.1457070127183382e-04 -5.7993985910212084e-09 0.0000000000000000e+00  -2.1457070128732376e-04 -5.7994171013338487e-09 0.0000000000000000e+00  -2.1457070129237273e-04 1.6998775813573212e-09 0.0000000000000000e+00  -6.0131018730822001e-04 -1.0073232960651837e-08 0.0000000000000000e+00  -6.0131018729890780e-04 -1.0073259127546010e-08 0.0000000000000000e+00  -6.0131018729673181e-04 -1.0073248162467338e-08 0.0000000000000000e+00  -6.0131018728111041e-04 -1.0073254386113069e-08 0