<?xml version="1.0"?>
<VTKFile type="UnstructuredGrid"  version="0.1"  >
<UnstructuredGrid>
<Piece  NumberOfPoints="961" NumberOfCells="1800">
<Points>
<DataArray  type="Float64"  NumberOfComponents="3"  format="ascii">0 0 0  0.03333333333333333 0 0  0.06666666666666667 0 0  0.1 0 0  0.1333333333333333 0 0  0.1666666666666667 0 0  0.2 0 0  0.2333333333333333 0 0  0.2666666666666667 0 0  0.3 0 0  0.3333333333333333 0 0  0.3666666666666666 0 0  0.4 0 0  0.4333333333333333 0 0  0.4666666666666667 0 0  0.5 0 0  0.5333333333333333 0 0  0.5666666666666667 0 0  0.6 0 0  0.6333333333333333 0 0  0.6666666666666666 0 0  0.7 0 0  0.7333333333333333 0 0  0.7666666666666667 0 0  0.8 0 0  0.8333333333333334 0 0  0.8666666666666667 0 0  0.9 0 0  0.9333333333333333 0 0  0.9666666666666667 0 0  1 0 0  0 0.03333333333333333 0  0.03333333333333333 0.03333333333333333 0  0.06666666666666667 0.03333333333333333 0  0.1 0.03333333333333333 0  0.1333333333333333 0.03333333333333333 0  0.1666666666666667 0.03333333333333333 0  0.2 0.03333333333333333 0  0.2333333333333333 0.03333333333333333 0  0.2666666666666667 0.03333333333333333 0  0.3 0.03333333333333333 0  0.3333333333333333 0.03333333333333333 0  0.3666666666666666 0.03333333333333333 0  0.4 0.03333333333333333 0  0.4333333333333333 0.03333333333333333 0  0.4666666666666667 0.03333333333333333 0  0.5 0.03333333333333333 0  0.5333333333333333 0.03333333333333333 0  0.5666666666666667 0.03333333333333333 0  0.6 0.03333333333333333 0  0.6333333333333333 0.03333333333333333 0  0.6666666666666666 0.03333333333333333 0  0.7 0.03333333333333333 0  0.7333333333333333 0.03333333333333333 0  0.7666666666666667 0.03333333333333333 0  0.8 0.03333333333333333 0  0.8333333333333334 0.03333333333333333 0  0.8666666666666667 0.03333333333333333 0  0.9 0.03333333333333333 0  0.9333333333333333 0.03333333333333333 0  0.9666666666666667 0.03333333333333333 0  1 0.03333333333333333 0  0 0.06666666666666667 0  0.03333333333333333 0.06666666666666667 0  0.06666666666666667 0.06666666666666667 0  0.1 0.06666666666666667 0  0.1333333333333333 0.06666666666666667 0  0.1666666666666667 0.06666666666666667 0  0.2 0.06666666666666667 0  0.2333333333333333 0.06666666666666667 0  0.2666666666666667 0.06666666666666667 0  0.3 0.06666666666666667 0  0.3333333333333333 0.06666666666666667 0  0.3666666666666666 0.06666666666666667 0  0.4 0.06666666666666667 0  0.4333333333333333 0.06666666666666667 0  0.4666666666666667 0.06666666666666667 0  0.5 0.06666666666666667 0  0.5333333333333333 0.06666666666666667 0  0.5666666666666667 0.06666666666666667 0  0.6 0.06666666666666667 0  0.6333333333333333 0.06666666666666667 0  0.6666666666666666 0.06666666666666667 0  0.7 0.06666666666666667 0  0.7333333333333333 0.06666666666666667 0  0.7666666666666667 0.06666666666666667 0  0.8 0.06666666666666667 0  0.8333333333333334 0.06666666666666667 0  0.8666666666666667 0.06666666666666667 0  0.9 0.06666666666666667 0  0.9333333333333333 0.06666666666666667 0  0.9666666666666667 0.06666666666666667 0  1 0.06666666666666667 0  0 0.1 0  0.03333333333333333 0.1 0  0.06666666666666667 0.1 0  0.1 0.1 0  0.1333333333333333 0.1 0  0.1666666666666667 0.1 0  0.2 0.1 0  0.2333333333333333 0.1 0  0.2666666666666667 0.1 0  0.3 0.1 0  0.3333333333333333 0.1 0  0.3666666666666666 0.1 0  0.4 0.1 0  0.4333333333333333 0.1 0  0.4666666666666667 0.1 0  0.5 0.1 0  0.5333333333333333 0.1 0  0.5666666666666667 0.1 0  0.6 0.1 0  0.6333333333333333 0.1 0  0.6666666666666666 0.1 0  0.7 0.1 0  0.7333333333333333 0.1 0  0.7666666666666667 0.1 0  0.8 0.1 0  0.8333333333333334 0.1 0  0.8666666666666667 0.1 0  0.9 0.1 0  0.9333333333333333 0.1 0  0.9666666666666667 0.1 0  1 0.1 0  0 0.1333333333333333 0  0.03333333333333333 0.1333333333333333 0  0.06666666666666667 0.1333333333333333 0  0.1 0.1333333333333333 0  0.1333333333333333 0.1333333333333333 0  0.1666666666666667 0.1333333333333333 0  0.2 0.1333333333333333 0  0.2333333333333333 0.1333333333333333 0  0.2666666666666667 0.1333333333333333 0  0.3 0.1333333333333333 0  0.3333333333333333 0.1333333333333333 0  0.3666666666666666 0.1333333333333333 0  0.4 0.1333333333333333 0  0.4333333333333333 0.1333333333333333 0  0.4666666666666667 0.1333333333333333 0  0.5 0.1333333333333333 0  0.5333333333333333 0.1333333333333333 0  0.5666666666666667 0.1333333333333333 0  0.6 0.1333333333333333 0  0.6333333333333333 0.1333333333333333 0  0.6666666666666666 0.1333333333333333 0  0.7 0.1333333333333333 0  0.7333333333333333 0.1333333333333333 0  0.7666666666666667 0.1333333333333333 0  0.8 0.1333333333333333 0  0.8333333333333334 0.1333333333333333 0  0.8666666666666667 0.1333333333333333 0  0.9 0.1333333333333333 0  0.9333333333333333 0.1333333333333333 0  0.9666666666666667 0.1333333333333333 0  1 0.1333333333333333 0  0 0.1666666666666667 0  0.03333333333333333 0.1666666666666667 0  0.06666666666666667 0.1666666666666667 0  0.1 0.1666666666666667 0  0.1333333333333333 0.1666666666666667 0  0.1666666666666667 0.1666666666666667 0  0.2 0.1666666666666667 0  0.2333333333333333 0.1666666666666667 0  0.2666666666666667 0.1666666666666667 0  0.3 0.1666666666666667 0  0.3333333333333333 0.1666666666666667 0  0.3666666666666666 0.1666666666666667 0  0.4 0.1666666666666667 0  0.4333333333333333 0.1666666666666667 0  0.4666666666666667 0.1666666666666667 0  0.5 0.1666666666666667 0  0.5333333333333333 0.1666666666666667 0  0.5666666666666667 0.1666666666666667 0  0.6 0.1666666666666667 0  0.6333333333333333 0.1666666666666667 0  0.6666666666666666 0.1666666666666667 0  0.7 0.1666666666666667 0  0.7333333333333333 0.1666666666666667 0  0.7666666666666667 0.1666666666666667 0  0.8 0.1666666666666667 0  0.8333333333333334 0.1666666666666667 0  0.8666666666666667 0.1666666666666667 0  0.9 0.1666666666666667 0  0.9333333333333333 0.1666666666666667 0  0.9666666666666667 0.1666666666666667 0  1 0.1666666666666667 0  0 0.2 0  0.03333333333333333 0.2 0  0.06666666666666667 0.2 0  0.1 0.2 0  0.1333333333333333 0.2 0  0.1666666666666667 0.2 0  0.2 0.2 0  0.2333333333333333 0.2 0  0.2666666666666667 0.2 0  0.3 0.2 0  0.3333333333333333 0.2 0  0.3666666666666666 0.2 0  0.4 0.2 0  0.4333333333333333 0.2 0  0.4666666666666667 0.2 0  0.5 0.2 0  0.5333333333333333 0.2 0  0.5666666666666667 0.2 0  0.6 0.2 0  0.6333333333333333 0.2 0  0.6666666666666666 0.2 0  0.7 0.2 0  0.7333333333333333 0.2 0  0.7666666666666667 0.2 0  0.8 0.2 0  0.8333333333333334 0.2 0  0.8666666666666667 0.2 0  0.9 0.2 0  0.9333333333333333 0.2 0  0.9666666666666667 0.2 0  1 0.2 0  0 0.2333333333333333 0  0.03333333333333333 0.2333333333333333 0  0.06666666666666667 0.2333333333333333 0  0.1 0.2333333333333333 0  0.1333333333333333 0.2333333333333333 0  0.1666666666666667 0.2333333333333333 0  0.2 0.2333333333333333 0  0.2333333333333333 0.2333333333333333 0  0.2666666666666667 0.2333333333333333 0  0.3 0.2333333333333333 0  0.3333333333333333 0.2333333333333333 0  0.3666666666666666 0.2333333333333333 0  0.4 0.2333333333333333 0  0.4333333333333333 0.2333333333333333 0  0.4666666666666667 0.2333333333333333 0  0.5 0.2333333333333333 0  0.5333333333333333 0.2333333333333333 0  0.5666666666666667 0.2333333333333333 0  0.6 0.2333333333333333 0  0.6333333333333333 0.2333333333333333 0  0.6666666666666666 0.2333333333333333 0  0.7 0.2333333333333333 0  0.7333333333333333 0.2333333333333333 0  0.7666666666666667 0.2333333333333333 0  0.8 0.2333333333333333 0  0.8333333333333334 0.2333333333333333 0  0.8666666666666667 0.2333333333333333 0  0.9 0.2333333333333333 0  0.9333333333333333 0.2333333333333333 0  0.9666666666666667 0.2333333333333333 0  1 0.2333333333333333 0  0 0.2666666666666667 0  0.03333333333333333 0.2666666666666667 0  0.06666666666666667 0.2666666666666667 0  0.1 0.2666666666666667 0  0.1333333333333333 0.2666666666666667 0  0.1666666666666667 0.2666666666666667 0  0.2 0.2666666666666667 0  0.2333333333333333 0.2666666666666667 0  0.2666666666666667 0.2666666666666667 0  0.3 0.2666666666666667 0  0.3333333333333333 0.2666666666666667 0  0.3666666666666666 0.2666666666666667 0  0.4 0.2666666666666667 0  0.4333333333333333 0.2666666666666667 0  0.4666666666666667 0.2666666666666667 0  0.5 0.2666666666666667 0  0.5333333333333333 0.2666666666666667 0  0.5666666666666667 0.2666666666666667 0  0.6 0.2666666666666667 0  0.6333333333333333 0.2666666666666667 0  0.6666666666666666 0.2666666666666667 0  0.7 0.2666666666666667 0  0.7333333333333333 0.2666666666666667 0  0.7666666666666667 0.2666666666666667 0  0.8 0.2666666666666667 0  0.8333333333333334 0.2666666666666667 0  0.8666666666666667 0.2666666666666667 0  0.9 0.2666666666666667 0  0.9333333333333333 0.2666666666666667 0  0.9666666666666667 0.2666666666666667 0  1 0.2666666666666667 0  0 0.3 0  0.03333333333333333 0.3 0  0.06666666666666667 0.3 0  0.1 0.3 0  0.1333333333333333 0.3 0  0.1666666666666667 0.3 0  0.2 0.3 0  0.2333333333333333 0.3 0  0.2666666666666667 0.3 0  0.3 0.3 0  0.3333333333333333 0.3 0  0.3666666666666666 0.3 0  0.4 0.3 0  0.4333333333333333 0.3 0  0.4666666666666667 0.3 0  0.5 0.3 0  0.5333333333333333 0.3 0  0.5666666666666667 0.3 0  0.6 0.3 0  0.6333333333333333 0.3 0  0.6666666666666666 0.3 0  0.7 0.3 0  0.7333333333333333 0.3 0  0.7666666666666667 0.3 0  0.8 0.3 0  0.8333333333333334 0.3 0  0.8666666666666667 0.3 0  0.9 0.3 0  0.9333333333333333 0.3 0  0.9666666666666667 0.3 0  1 0.3 0  0 0.3333333333333333 0  0.03333333333333333 0.3333333333333333 0  0.06666666666666667 0.3333333333333333 0  0.1 0.3333333333333333 0  0.1333333333333333 0.3333333333333333 0  0.1666666666666667 0.3333333333333333 0  0.2 0.3333333333333333 0  0.2333333333333333 0.3333333333333333 0  0.2666666666666667 0.3333333333333333 0  0.3 0.3333333333333333 0  0.3333333333333333 0.3333333333333333 0  0.3666666666666666 0.3333333333333333 0  0.4 0.3333333333333333 0  0.4333333333333333 0.3333333333333333 0  0.4666666666666667 0.3333333333333333 0  0.5 0.3333333333333333 0  0.5333333333333333 0.33333333333333
[...]
<PointData  Vectors="u_f"> 
<DataArray  type="Float64"  Name="u_f"  NumberOfComponents="3" format="ascii">2.7078740994414415e-06 -4.2691827163276325e-09 0.0000000000000000e+00  2.7078740872109363e-06 -4.2691811724237388e-09 0.0000000000000000e+00  2.7078740912670992e-06 -4.2691880088063273e-09 0.0000000000000000e+00  2.7078740912332179e-06 -4.2691882335614377e-09 0.0000000000000000e+00  2.7078740913982877e-06 -4.2692017413110440e-09 0.0000000000000000e+00  2.7078740804024177e-06 -4.2691957773317336e-09 0.0000000000000000e+00  2.7078740899467578e-06 -4.2691903630429247e-09 0.0000000000000000e+00  2.7078740851404896e-06 -4.2691890087117809e-09 0.0000000000000000e+00  2.7078740944265186e-06 -4.2691926255560182e-09 0.0000000000000000e+00  2.7078740844737052e-06 -4.2691965673356466e-09 0.0000000000000000e+00  2.7078740820850452e-06 -4.2691983222794931e-09 0.0000000000000000e+00  2.7078740854330073e-06 -4.2692180413691355e-09 0.0000000000000000e+00  2.7078740732076521e-06 -4.2692006292990858e-09 0.0000000000000000e+00  2.7078740889618143e-06 -4.2691883951075614e-09 0.0000000000000000e+00  2.7078740951693055e-06 -4.2691836084091800e-09 0.0000000000000000e+00  2.7078740843387221e-06 -4.2691787555202559e-09 0.0000000000000000e+00  2.7078740983955659e-06 -4.2691876353528890e-09 0.0000000000000000e+00  2.7078740903654767e-06 -4.2691856107137521e-09 0.0000000000000000e+00  2.7078740909990302e-06 -4.2691810497462630e-09 0.0000000000000000e+00  2.7078740869273632e-06 -4.2691898498358263e-09 0.0000000000000000e+00  2.7078740878602649e-06 -4.2691892889238324e-09 0.0000000000000000e+00  2.7078740856598766e-06 -4.2691768184304445e-09 0.0000000000000000e+00  2.7078741121874849e-06 -4.2691556918837519e-09 0.0000000000000000e+00  2.7078741103388660e-06 -4.2691828933236371e-09 0.0000000000000000e+00  2.7078740809791590e-06 -4.2691906158246612e-09 0.0000000000000000e+00  2.7078740880658839e-06 -4.2691969443127420e-09 0.0000000000000000e+00  2.7078740946442264e-06 -4.2691926170450312e-09 0.0000000000000000e+00  2.7078740843794339e-06 -4.2691929246331875e-09 0.0000000000000000e+00  2.7078740946891123e-06 -4.2691889443643820e-09 0.0000000000000000e+00  2.7078740856392768e-06 -4.2691806375868072e-09 0.0000000000000000e+00  2.7078740994414957e-06 9.7181395102347326e-10 0.0000000000000000e+00  4.1704751763635200e-04 -9.0346986212882022e-09 0.0000000000000000e+00  4.1704751763308714e-04 -9.0347044287087189e-09 0.0000000000000000e+00  4.1704751762942644e-04 -9.0346983491534569e-09 0.0000000000000000e+00  4.1704751763593220e-04 -9.0346861234729195e-09 0.0000000000000000e+00  4.1704751763540842e-04 -9.0346976328210815e-09 0.0000000000000000e+00  4.1704751763017357e-04 -9.0347020262251249e-09 0.0000000000000000e+00  4.1704751763427575e-04 -9.0347058976942424e-09 0.0000000000000000e+00  4.1704751762748138e-04 -9.0347074962419255e-09 0.0000000000000000e+00  4.1704751763148046e-04 -9.0347113378954833e-09 0.0000000000000000e+00  4.1704751762870382e-04 -9.0347140613029203e-09 0.0000000000000000e+00  4.1704751762105803e-04 -9.0347142738065461e-09 0.0000000000000000e+00  4.1704751760713069e-04 -9.0347319322073294e-09 0.0000000000000000e+00  4.1704751761611309e-04 -9.0347020798931324e-09 0.0000000000000000e+00  4.1704751763878896e-04 -9.0346947011384071e-09 0.0000000000000000e+00  4.1704751763169470e-04 -9.0346970643738825e-09 0.0000000000000000e+00  4.1704751764241844e-04 -9.0347043203969218e-09 0.0000000000000000e+00  4.1704751762768576e-04 -9.0346998267041775e-09 0.0000000000000000e+00  4.1704751763136240e-04 -9.0346949799952059e-09 0.0000000000000000e+00  4.1704751763695850e-04 -9.0346990908561631e-09 0.0000000000000000e+00  4.1704751762639241e-04 -9.0346996892273421e-09 0.0000000000000000e+00  4.1704751763843215e-04 -9.0346917889713718e-09 0.0000000000000000e+00  4.1704751762877072e-04 -9.0347067067259035e-09 0.0000000000000000e+00  4.1704751766311705e-04 -9.0346817263825888e-09 0.0000000000000000e+00  4.1704751763839973e-04 -9.0347022098889729e-09 0.0000000000000000e+00  4.1704751763057353e-04 -9.0347073273232270e-09 0.0000000000000000e+00  4.1704751762217476e-04 -9.0347037608401806e-09 0.0000000000000000e+00  4.1704751763604268e-04 -9.0346889605047442e-09 0.0000000000000000e+00  4.1704751763239965e-04 -9.0346894482873016e-09 0.0000000000000000e+00  4.1704751763157880e-04 -9.0346900367922409e-09 0.0000000000000000e+00  4.1704751764337622e-04 -9.0347001373281000e-09 0.0000000000000000e+00  4.1704751763635222e-04 3.6803173384575465e-09 0.0000000000000000e+00  7.5927582695081079e-04 -1.2332163915160406e-08 0.0000000000000000e+00  7.5927582696448757e-04 -1.2332161397317701e-08 0.0000000000000000e+00  7.5927582695729508e-04 -1.2332168118937489e-08 0.0000000000000000e+00  7.5927582695670516e-04 -1.2332182505216116e-08 0.0000000000000000e+00  7.5927582695876504e-04 -1.2332175696643313e-08 0.0000000000000000e+00  7.5927582694884676e-04 -1.2332181575838014e-08 0.0000000000000000e+00  7.5927582695479881e-04 -1.2332166833507394e-08 0.0000000000000000e+00  7.5927582695452505e-04 -1.2332185187532291e-08 0.0000000000000000e+00  7.5927582694983739e-04 -1.2332178090344870e-08 0.0000000000000000e+00  7.5927582695531478e-04 -1.2332180854301468e-08 0.0000000000000000e+00  7.5927582695027411e-04 -1.2332163268216970e-08 0.0000000000000000e+00  7.5927582693279189e-04 -1.2332195349325573e-08 0.0000000000000000e+00  7.5927582694723563e-04 -1.2332174891623200e-08 0.0000000000000000e+00  7.5927582695406860e-04 -1.2332173910853915e-08 0.0000000000000000e+00  7.5927582695564416e-04 -1.2332171715995037e-08 0.0000000000000000e+00  7.5927582695154967e-04 -1.2332181391848905e-08 0.0000000000000000e+00  7.5927582694682255e-04 -1.2332183355881141e-08 0.0000000000000000e+00  7.5927582695728434e-04 -1.2332174833835224e-08 0.0000000000000000e+00  7.5927582695078401e-04 -1.2332178191067251e-08 0.0000000000000000e+00  7.5927582695180121e-04 -1.2332181647612198e-08 0.0000000000000000e+00  7.5927582694979728e-04 -1.2332183362603194e-08 0.0000000000000000e+00  7.5927582695198043e-04 -1.2332177768228404e-08 0.0000000000000000e+00  7.5927582697457151e-04 -1.2332142032382698e-08 0.0000000000000000e+00  7.5927582696537249e-04 -1.2332162873675799e-08 0.0000000000000000e+00  7.5927582695286850e-04 -1.2332179977290331e-08 0.0000000000000000e+00  7.5927582694673647e-04 -1.2332167165815359e-08 0.0000000000000000e+00  7.5927582695404854e-04 -1.2332180016213189e-08 0.0000000000000000e+00  7.5927582695831770e-04 -1.2332171627415719e-08 0.0000000000000000e+00  7.5927582695579118e-04 -1.2332174996790811e-08 0.0000000000000000e+00  7.5927582695819551e-04 -1.2332172870670351e-08 0.0000000000000000e+00  7.5927582695081122e-04 5.8016113164127148e-09 0.0000000000000000e+00  9.7021845587994568e-04 -1.3476986372154207e-08 0.0000000000000000e+00  9.7021845587226172e-04 -1.3476989248325730e-08 0.0000000000000000e+00  9.7021845586934066e-04 -1.3476988280133190e-08 0.0000000000000000e+00  9.7021845587486771e-04 -1.3476980922086726e-08 0.0000000000000000e+00  9.7021845586939596e-04 -1.3476986296910576e-08 0.0000000000000000e+00  9.7021845587128941e-04 -1.3476989987534771e-08 0.0000000000000000e+00  9.7021845587333660e-04 -1.3476982953447916e-08 0.0000000000000000e+00  9.7021845587246880e-04 -1.3476980097442554e-08 0.0000000000000000e+00  9.7021845587803857e-04 -1.3476987748006763e-08 0.0000000000000000e+00  9.7021845586834211e-04 -1.3476983744915502e-08 0.0000000000000000e+00  9.7021845587271687e-04 -1.3476978058925629e-08 0.0000000000000000e+00  9.7021845587922642e-04 -1.3476973552330879e-08 0.0000000000000000e+00  9.7021845586599612e-04 -1.3476996120432780e-08 0.0000000000000000e+00  9.7021845587089953e-04 -1.3476991500647323e-08 0.0000000000000000e+00  9.7021845587525108e-04 -1.3476996264848509e-08 0.0000000000000000e+00  9.7021845586617761e-04 -1.3476990138672554e-08 0.0000000000000000e+00  9.7021845586639250e-04 -1.3476987373306493e-08 0.0000000000000000e+00  9.7021845587557201e-04 -1.3476975581957346e-08 0.0000000000000000e+00  9.7021845587661479e-04 -1.3476981708566982e-08 0.0000000000000000e+00  9.7021845587176125e-04 -1.3476988789491370e-08 0.0000000000000000e+00  9.7021845587317852e-04 -1.3476986330304003e-08 0.0000000000000000e+00  9.7021845586853792e-04 -1.3476981702278609e-08 0.0000000000000000e+00  9.7021845588790654e-04 -1.3477000201369757e-08 0.0000000000000000e+00  9.7021845586554010e-04 -1.3476992641011168e-08 0.0000000000000000e+00  9.7021845587912407e-04 -1.3476991236752514e-08 0.0000000000000000e+00  9.7021845586352739e-04 -1.3476993028288184e-08 0.0000000000000000e+00  9.7021845586732535e-04 -1.3476985886865314e-08 0.0000000000000000e+00  9.7021845587761659e-04 -1.3476980000948560e-08 0.0000000000000000e+00  9.7021845587162464e-04 -1.3476976762870352e-08 0.0000000000000000e+00  9.7021845586920470e-04 -1.3476978821119756e-08 0.0000000000000000e+00  9.7021845587994611e-04 6.9376145227802151e-09 0.0000000000000000e+00  1.0134015345529658e-03 -1.2186026365182574e-08 0.0000000000000000e+00  1.0134015345598631e-03 -1.2186020201493224e-08 0.0000000000000000e+00  1.0134015345566773e-03 -1.2186032285143276e-08 0.0000000000000000e+00  1.0134015345595040e-03 -1.2186043922969396e-08 0.0000000000000000e+00  1.0134015345564767e-03 -1.2186030202716164e-08 0.0000000000000000e+00  1.0134015345573820e-03 -1.2186029001420157e-08 0.0000000000000000e+00  1.0134015345508486e-03 -1.2186031838126721e-08 0.0000000000000000e+00  1.0134015345658050e-03 -1.2186009107286074e-08 0.0000000000000000e+00  1.0134015345731524e-03 -1.2186023507550908e-08 0.0000000000000000e+00  1.0134015345507684e-03 -1.2186026306852497e-08 0.0000000000000000e+00  1.0134015345572935e-03 -1.2186020605683794e-08 0.0000000000000000e+00  1.0134015345715280e-03 -1.2186029807090791e-08 0.0000000000000000e+00  1.0134015345574380e-03 -1.2186030111968442e-08 0.0000000000000000e+00  1.0134015345650660e-03 -1.2186022063827295e-08 0.0000000000000000e+00  1.0134015345608191e-03 -1.2186025696121414e-08 0.0000000000000000e+00  1.0134015345581433e-03 -1.2186035990837882e-08 0.0000000000000000e+00  1.0134015345581897e-03 -1.2186022542827815e-08 0.0000000000000000e+00  1.0134015345660955e-03 -1.2186030965994493e-08 0.0000000000000000e+00  1.0134015345588849e-03 -1.2186023641558297e-08 0.0000000000000000e+00  1.0134015345586573e-03 -1.2186026836051578e-08 0.0000000000000000e+00  1.0134015345656274e-03 -1.2186033207907745e-08 0.0000000000000000e+00  1.0134015345571697e-03 -1.2186021452987791e-08 0.0000000000000000e+00  1.0134015345657477e-03 -1.2186029329608154e-08 0.0000000000000000e+00  1.0134015345501612e-03 -1.2186031119625941e-08 0.0000000000000000e+00  1.0134015345590326e-03 -1.2186020700226223e-08 0.0000000000000000e+00  1.0134015345586176e-03 -1.2186040908995777e-08 0.0000000000000000e+00  1.0134015345537651e-03 -1.2186023985792487e-08 0.0000000000000000e+00  1.0134015345630494e-03 -1.2186027790366330e-08 0.0000000000000000e+00  1.0134015345603618e-03 -1.2186037057801240e-08 0.0000000000000000e+00  1.0134015345614215e-03 -1.2186037742474912e-08 0.0000000000000000e+00  1.0134015345529661e-03 6.8542554802953568e-09 0.0000000000000000e+00  8.8135831507057114e-04 -8.6829946832883004e-09 0.0000000000000000e+00  8.8135831507172300e-04 -8.6829892765889066e-09 0.0000000000000000e+00  8.8135831507364019e-04 -8.6829864395570819e-09 0.0000000000000000e+00  8.8135831506992821e-04 -8.6829769643890359e-09 0.0000000000000000e+00  8.8135831507282444e-04 -8.6829868090531823e-09 0.0000000000000000e+00  8.8135831506860353e-04 -8.6829913940357495e-09 0.0000000000000000e+00  8.8135831506882124e-04 -8.6829853923262035e-09 0.0000000000000000e+00  8.8135831507138787e-04 -8.6829808528801275e-09 0.0000000000000000e+00  8.8135831507641597e-04 -8.6829828114913521e-09 0.0000000000000000e+00  8.8135831507166272e-04 -8.6829898697559152e-09 0.0000000000000000e+00  8.8135831507750635e-04 -8.6829780702752518e-09 0.0000000000000000e+00  8.8135831507445389e-04 -8.6829970625699679e-09 0.0000000000000000e+00  8.8135831506482411e-04 -8.6829964949901306e-09 0.0000000000000000e+00  8.8135831506397822e-04 -8.6829779016818140e-09 0.0000000000000000e+00  8.8135831508213676e-04 -8.6829770507999490e-09 0.0000000000000000e+00  8.8135831506449224e-04 -8.6829799747847880e-09 0.0000000000000000e+00  8.8135831508128837e-04 -8.6829874113274891e-09 0.0000000000000000e+00  8.8135831506349694e-04 -8.6830000542090224e-09 0.0000000000000000e+00  8.8135831506669111e-04 -8.6829951994769547e-09 0.0000000000000000e+00  8.8135831507173991e-04 -8.6829942679304481e-09 0.0000000000000000e+00  8.8135831506652262e-04 -8.6829830275728451e-09 0.0000000000000000e+00  8.8135831507275071e-04 -8.6829866116199667e-09 0.0000000000000000e+00  8.8135831507220167e-04 -8.6829870231831113e-09 0.0000000000000000e+00  8.8135831507915856e-04 -8.6829919786375609e-09 0.0000000000000000e+00  8.8135831506254761e-04 -8.6829750309313017e-09 0.0000000000000000e+00  8.8135831507576566e-04 -8.6829826349832384e-09 0.0000000000000000e+00  8.8135831505808807e-04 -8.6829897590588734e-09 0.0000000000000000e+00  8.8135831507160937e-04 -8.6829892264987663e-09 0.0000000000000000e+00  8.8135831506085636e-04 -8.6829851749436679e-09 0.0000000000000000e+00  8.8135831507362913e-04 -8.6829841991617127e-09 0.0000000000000000e+00  8.8135831507057136e-04 5.5467103880174107e-09 0.0000000000000000e+00  5.9692024073933431e-04 -3.6593239417358897e-09 0.0000000000000000e+00  5.9692024074634346e-04 -3.6593199769711753e-09 0.0000000000000000e+00  5.9692024074701729e-04 -3.6593314930413907e-09 0.0000000000000000e+00  5.9692024074169646e-04 -3.6593168717077330e-09 0.0000000000000000e+00  5.9692024075646828e-04 -3.6593213769472305e-09 0.0000000000000000e+00  5.9692024074132447e-04 -3.6593197677743661e-09 0.0000000000000000e+00  5.9692024074648191e-04 -3.6593231196395924e-09 0.0000000000000000e+00  5.9692024074285038e-04 -3.6593381596379190e-09 0.0000000000000000e+00  5.9692024073271525e-04 -3.6593369645218643e-09 0.0000000000000000e+00  5.9692024074382811e-04 -3.6593223186852375e-09 0.0000000000000000e+00  5.9692024074940058e-04 -3.6593169991556984e-09 0.0000000000000000e+00  5.9692024074168236e-04 -3.6593200765009347e-09 0.0000000000000000e+00  5.9692024074444188e-04 -3.6593313437467516e-09 0.0000000000000000e+00  5.9692024073879513e-04 -3.6593282943197213e-09 0.0000000000000000e+00  5.9692024074469439e-04 -3.6593264440745038e-09 0.0000000000000000e+00  5.9692024075325622e-04 -3.6593191645242773e-09 0.0000000000000000e+00  5.9692024074371785e-04 -3.6593323909776300e-09 0.0000000000000000e+00  5.9692024073982101e-04 -3.6593241303328576e-09 0.0000000000000000e+00  5.9692024073450039e-04 -3.6593319711203387e-09 0.0000000000000000e+00  5.9692024074147225e-04 -3.6593261025508195e-09 0.0000000000000000e+00  5.9692024074831291e-04 -3.6593334881360184e-09 0.0000000000000000e+00  5.9692024074370072e-04 -3.6593260505091152e-09 0.0000000000000000e+00  5.9692024074210585e-04 -3.6593301931371960e-09 0.0000000000000000e+00  5.9692024074821382e-04 -3.6593204776557385e-09 0.0000000000000000e+00  5.9692024073877649e-04 -3.6593378922194532e-09 0.0000000000000000e+00  5.9692024073786651e-04 -3.6593203043460212e-09 0.0000000000000000e+00  5.9692024074666037e-04 -3.6593188324331519e-09 0.0000000000000000e+00  5.9692024074313975e-04 -3.6593120687463190e-09 0.0000000000000000e+00  5.9692024074597440e-04 -3.6593142605694309e-09 0.0000000000000000e+00  5.9692024075025038e-04 -3.6593178647285028e-09 0.0000000000000000e+00  5.9692024073933442e-04 3.2529694224929562e-09 0.0000000000000000e+00  2.0926920128777938e-04 1.9020325071216924e-09 0.0000000000000000e+00  2.0926920129483854e-04 1.9020314759505587e-09 0.0000000000000000e+00  2.0926920129484518e-04 1.9020330216027283e-09 0.0000000000000000e+00  2.0926920129880170e-04 1.9020201184720160e-09 0.0000000000000000e+00  2.0926920129047704e-04 1.9020204423774150e-09 0.0000000000000000e+00  2.0926920129273958e-04 1.9020329309227691e-09 0.0000000000000000e+00  2.0926920129324026e-04 1.9020293165450917e-09 0.0000000000000000e+00  2.0926920129584305e-04 1.9020312979245620e-09 0.0000000000000000e+00  2.0926920128439417e-04 1.9020434919735010e-09 0.0000000000000000e+00  2.0926920131088161e-04 1.9020323991487086e-09 0.0000000000000000e+00  2.0926920128898200e-04 1.9020271910209427e-09 0.0000000000000000e+00  2.0926920129684737e-04 1.9020343315222406e-09 0.0000000000000000e+00  2.0926920129823358e-04 1.9020271401447558e-09 0.0000000000000000e+00  2.0926920128839024e-04 1.9020204054467785e-09 0.0000000000000000e+00  2.0926920128720337e-04 1.9020148564865072e-09 0.0000000000000000e+00  2.0926920129231861e-04 1.9020346126287589e-09 0.0000000000000000e+00  2.0926920130459183e-04 1.9020306844016576e-09 0.0000000000000000e+00  2.0926920129949231e-04 1.9020193103754792e-09 0.0000000000000000e+00  2.0926920128292760e-04 1.9020267700252391e-09 0.0000000000000000e+00  2.0926920129547778e-04 1.9020303658088492e-09 0.0000000000000000e+00  2.0926920129512260e-04 1.9020261182706557e-09 0.0000000000000000e+00  2.0926920128714932e-04 1.9020315197523265e-09 0.0000000000000000e+00  2.0926920129916559e-04 1.9020354543897730e-09 0.0000000000000000e+00  2.0926920129619246e-04 1.9020201204235799e-09 0.0000000000000000e+00  2.0926920128755530e-04 1.9020444550838433e-09 0.0000000000000000e+00  2.0926920130841356e-04 1.9020296155138408e-09 0.0000000000000000e+00  2.0926920129470136e-04 1.9020253275213537e-09 0.0000000000000000e+00  2.0926920128587969e-04 1.9020311682539821e-09 0.0000000000000000e+00  2.0926920129729653e-04 1.9020385125175258e-09 0.0000000000000000e+00  2.0926920129741035e-04 1.9020223156077185e-09 0.0000000000000000e+00  2.0926920128777940e-04 4.0459090229716165e-10 0.0000000000000000e+00  -2.1456643794232169e-04 6.9722261214814028e-09 0.0000000000000000e+00  -2.1456643795060218e-04 6.9722302517495789e-09 0.0000000000000000e+00  -2.1456643793921952e-04 6.9722183238993783e-09 0.0000000000000000e+00  -2.1456643795738397e-04 6.9722150656550096e-09 0.0000000000000000e+00  -2.1456643795438870e-04 6.9722116760595476e-09 0.0000000000000000e+00  -2.1456643795170422e-04 6.9722209370976646e-09 0.0000000000000000e+00  -2.1456643794682948e-04 6.9722308920793820e-09 0.0000000000000000e+00  -2.1456643794382239e-04 6.9722302934913626e-09 0.0000000000000000e+00  -2.1456643794235877e-04 6.9722314652970706e-09 0.0000000000000000e+00  -2.1456643794449856e-04 6.9722318553930122e-09 0.0000000000000000e+00  -2.1456643794607401e-04 6.9722251370258302e-09 0.0000000000000000e+00  -2.1456643794861744e-04 6.9722205846235383e-09 0.0000000000000000e+00  -2.1456643794956384e-04 6.9722133516397951e-09 0.0000000000000000e+00  -2.1456643795094121e-04 6.9722218592658224e-09 0.0000000000000000e+00  -2.1456643794675017e-04 6.9722245523698087e-09 0.0000000000000000e+00  -2.1456643795688405e-04 6.9722175315102206e-09 0.0000000000000000e+00  -2.1456643794599351e-04 6.9722190801846037e-09 0.0000000000000000e+00  -2.1456643795368440e-04 6.9722070687424156e-09 0.0000000000000000e+00  -2.1456643795234303e-04 6.9722280116252602e-09 0.0000000000000000e+00  -2.1456643795435666e-04 6.9722316473346153e-09 0.0000000000000000e+00  -2.1456643794012234e-04 6.9722291451586316e-09 0.0000000000000000e+00  -2.1456643794925208e-04 6.9722306751305273e-09 0.0000000000000000e+00  -2.1456643794523158e-04 6.9722381794900742e-09 0.0000000000000000e+00  -2.1456643794724544e-04 6.9722319187104191e-09 0.0000000000000000e+00  -2.1456643794615316e-04 6.9722392217336226e-09 0.0000000000000000e+00  -2.1456643793964003e-04 6.9722237466991743e-09 0.0000000000000000e+00  -2.1456643794637406e-04 6.9722247127775201e-09 0.0000000000000000e+00  -2.1456643794275668e-04 6.9722228575991828e-09 0.0000000000000000e+00  -2.1456643795359306e-04 6.9722220029768203e-09 0.0000000000000000e+00  -2.1456643795281975e-04 6.9722334248840771e-09 0.0000000000000000e+00  -2.1456643794232186e-04 -2.4708722390091020e-09 0.0000000000000000e+00  -6.0130163530191377e-04 1.0698902791917569e-08 0.0000000000000000e+00  -6.0130163530556472e-04 1.0698890450877921e-08 0.00