<?xml version="1.0"?>
<VTKFile type="UnstructuredGrid"  version="0.1"  >
<UnstructuredGrid>
<Piece  NumberOfPoints="961" NumberOfCells="1800">
<Points>
<DataArray  type="Float64"  NumberOfComponents="3"  format="ascii">0 0 0  0.03333333333333333 0 0  0.06666666666666667 0 0  0.1 0 0  0.1333333333333333 0 0  0.1666666666666667 0 0  0.2 0 0  0.2333333333333333 0 0  0.2666666666666667 0 0  0.3 0 0  0.3333333333333333 0 0  0.3666666666666666 0 0  0.4 0 0  0.4333333333333333 0 0  0.4666666666666667 0 0  0.5 0 0  0.5333333333333333 0 0  0.5666666666666667 0 0  0.6 0 0  0.6333333333333333 0 0  0.6666666666666666 0 0  0.7 0 0  0.7333333333333333 0 0  0.7666666666666667 0 0  0.8 0 0  0.8333333333333334 0 0  0.8666666666666667 0 0  0.9 0 0  0.9333333333333333 0 0  0.9666666666666667 0 0  1 0 0  0 0.03333333333333333 0  0.03333333333333333 0.03333333333333333 0  0.06666666666666667 0.03333333333333333 0  0.1 0.03333333333333333 0  0.1333333333333333 0.03333333333333333 0  0.1666666666666667 0.03333333333333333 0  0.2 0.03333333333333333 0  0.2333333333333333 0.03333333333333333 0  0.2666666666666667 0.03333333333333333 0  0.3 0.03333333333333333 0  0.3333333333333333 0.03333333333333333 0  0.3666666666666666 0.03333333333333333 0  0.4 0.03333333333333333 0  0.4333333333333333 0.03333333333333333 0  0.4666666666666667 0.03333333333333333 0  0.5 0.03333333333333333 0  0.5333333333333333 0.03333333333333333 0  0.5666666666666667 0.03333333333333333 0  0.6 0.03333333333333333 0  0.6333333333333333 0.03333333333333333 0  0.6666666666666666 0.03333333333333333 0  0.7 0.03333333333333333 0  0.7333333333333333 0.03333333333333333 0  0.7666666666666667 0.03333333333333333 0  0.8 0.03333333333333333 0  0.8333333333333334 0.03333333333333333 0  0.8666666666666667 0.03333333333333333 0  0.9 0.03333333333333333 0  0.9333333333333333 0.03333333333333333 0  0.9666666666666667 0.03333333333333333 0  1 0.03333333333333333 0  0 0.06666666666666667 0  0.03333333333333333 0.06666666666666667 0  0.06666666666666667 0.06666666666666667 0  0.1 0.06666666666666667 0  0.1333333333333333 0.06666666666666667 0  0.1666666666666667 0.06666666666666667 0  0.2 0.06666666666666667 0  0.2333333333333333 0.06666666666666667 0  0.2666666666666667 0.06666666666666667 0  0.3 0.06666666666666667 0  0.3333333333333333 0.06666666666666667 0  0.3666666666666666 0.06666666666666667 0  0.4 0.06666666666666667 0  0.4333333333333333 0.06666666666666667 0  0.4666666666666667 0.06666666666666667 0  0.5 0.06666666666666667 0  0.5333333333333333 0.06666666666666667 0  0.5666666666666667 0.06666666666666667 0  0.6 0.06666666666666667 0  0.6333333333333333 0.06666666666666667 0  0.6666666666666666 0.06666666666666667 0  0.7 0.06666666666666667 0  0.7333333333333333 0.06666666666666667 0  0.7666666666666667 0.06666666666666667 0  0.8 0.06666666666666667 0  0.8333333333333334 0.06666666666666667 0  0.8666666666666667 0.06666666666666667 0  0.9 0.06666666666666667 0  0.9333333333333333 0.06666666666666667 0  0.9666666666666667 0.06666666666666667 0  1 0.06666666666666667 0  0 0.1 0  0.03333333333333333 0.1 0  0.06666666666666667 0.1 0  0.1 0.1 0  0.1333333333333333 0.1 0  0.1666666666666667 0.1 0  0.2 0.1 0  0.2333333333333333 0.1 0  0.2666666666666667 0.1 0  0.3 0.1 0  0.3333333333333333 0.1 0  0.3666666666666666 0.1 0  0.4 0.1 0  0.4333333333333333 0.1 0  0.4666666666666667 0.1 0  0.5 0.1 0  0.5333333333333333 0.1 0  0.5666666666666667 0.1 0  0.6 0.1 0  0.6333333333333333 0.1 0  0.6666666666666666 0.1 0  0.7 0.1 0  0.7333333333333333 0.1 0  0.7666666666666667 0.1 0  0.8 0.1 0  0.8333333333333334 0.1 0  0.8666666666666667 0.1 0  0.9 0.1 0  0.9333333333333333 0.1 0  0.9666666666666667 0.1 0  1 0.1 0  0 0.1333333333333333 0  0.03333333333333333 0.1333333333333333 0  0.06666666666666667 0.1333333333333333 0  0.1 0.1333333333333333 0  0.1333333333333333 0.1333333333333333 0  0.1666666666666667 0.1333333333333333 0  0.2 0.1333333333333333 0  0.2333333333333333 0.1333333333333333 0  0.2666666666666667 0.1333333333333333 0  0.3 0.1333333333333333 0  0.3333333333333333 0.1333333333333333 0  0.3666666666666666 0.1333333333333333 0  0.4 0.1333333333333333 0  0.4333333333333333 0.1333333333333333 0  0.4666666666666667 0.1333333333333333 0  0.5 0.1333333333333333 0  0.5333333333333333 0.1333333333333333 0  0.5666666666666667 0.1333333333333333 0  0.6 0.1333333333333333 0  0.6333333333333333 0.1333333333333333 0  0.6666666666666666 0.1333333333333333 0  0.7 0.1333333333333333 0  0.7333333333333333 0.1333333333333333 0  0.7666666666666667 0.1333333333333333 0  0.8 0.1333333333333333 0  0.8333333333333334 0.1333333333333333 0  0.8666666666666667 0.1333333333333333 0  0.9 0.1333333333333333 0  0.9333333333333333 0.1333333333333333 0  0.9666666666666667 0.1333333333333333 0  1 0.1333333333333333 0  0 0.1666666666666667 0  0.03333333333333333 0.1666666666666667 0  0.06666666666666667 0.1666666666666667 0  0.1 0.1666666666666667 0  0.1333333333333333 0.1666666666666667 0  0.1666666666666667 0.1666666666666667 0  0.2 0.1666666666666667 0  0.2333333333333333 0.1666666666666667 0  0.2666666666666667 0.1666666666666667 0  0.3 0.1666666666666667 0  0.3333333333333333 0.1666666666666667 0  0.3666666666666666 0.1666666666666667 0  0.4 0.1666666666666667 0  0.4333333333333333 0.1666666666666667 0  0.4666666666666667 0.1666666666666667 0  0.5 0.1666666666666667 0  0.5333333333333333 0.1666666666666667 0  0.5666666666666667 0.1666666666666667 0  0.6 0.1666666666666667 0  0.6333333333333333 0.1666666666666667 0  0.6666666666666666 0.1666666666666667 0  0.7 0.1666666666666667 0  0.7333333333333333 0.1666666666666667 0  0.7666666666666667 0.1666666666666667 0  0.8 0.1666666666666667 0  0.8333333333333334 0.1666666666666667 0  0.8666666666666667 0.1666666666666667 0  0.9 0.1666666666666667 0  0.9333333333333333 0.1666666666666667 0  0.9666666666666667 0.1666666666666667 0  1 0.1666666666666667 0  0 0.2 0  0.03333333333333333 0.2 0  0.06666666666666667 0.2 0  0.1 0.2 0  0.1333333333333333 0.2 0  0.1666666666666667 0.2 0  0.2 0.2 0  0.2333333333333333 0.2 0  0.2666666666666667 0.2 0  0.3 0.2 0  0.3333333333333333 0.2 0  0.3666666666666666 0.2 0  0.4 0.2 0  0.4333333333333333 0.2 0  0.4666666666666667 0.2 0  0.5 0.2 0  0.5333333333333333 0.2 0  0.5666666666666667 0.2 0  0.6 0.2 0  0.6333333333333333 0.2 0  0.6666666666666666 0.2 0  0.7 0.2 0  0.7333333333333333 0.2 0  0.7666666666666667 0.2 0  0.8 0.2 0  0.8333333333333334 0.2 0  0.8666666666666667 0.2 0  0.9 0.2 0  0.9333333333333333 0.2 0  0.9666666666666667 0.2 0  1 0.2 0  0 0.2333333333333333 0  0.03333333333333333 0.2333333333333333 0  0.06666666666666667 0.2333333333333333 0  0.1 0.2333333333333333 0  0.1333333333333333 0.2333333333333333 0  0.1666666666666667 0.2333333333333333 0  0.2 0.2333333333333333 0  0.2333333333333333 0.2333333333333333 0  0.2666666666666667 0.2333333333333333 0  0.3 0.2333333333333333 0  0.3333333333333333 0.2333333333333333 0  0.3666666666666666 0.2333333333333333 0  0.4 0.2333333333333333 0  0.4333333333333333 0.2333333333333333 0  0.4666666666666667 0.2333333333333333 0  0.5 0.2333333333333333 0  0.5333333333333333 0.2333333333333333 0  0.5666666666666667 0.2333333333333333 0  0.6 0.2333333333333333 0  0.6333333333333333 0.2333333333333333 0  0.6666666666666666 0.2333333333333333 0  0.7 0.2333333333333333 0  0.7333333333333333 0.2333333333333333 0  0.7666666666666667 0.2333333333333333 0  0.8 0.2333333333333333 0  0.8333333333333334 0.2333333333333333 0  0.8666666666666667 0.2333333333333333 0  0.9 0.2333333333333333 0  0.9333333333333333 0.2333333333333333 0  0.9666666666666667 0.2333333333333333 0  1 0.2333333333333333 0  0 0.2666666666666667 0  0.03333333333333333 0.2666666666666667 0  0.06666666666666667 0.2666666666666667 0  0.1 0.2666666666666667 0  0.1333333333333333 0.2666666666666667 0  0.1666666666666667 0.2666666666666667 0  0.2 0.2666666666666667 0  0.2333333333333333 0.2666666666666667 0  0.2666666666666667 0.2666666666666667 0  0.3 0.2666666666666667 0  0.3333333333333333 0.2666666666666667 0  0.3666666666666666 0.2666666666666667 0  0.4 0.2666666666666667 0  0.4333333333333333 0.2666666666666667 0  0.4666666666666667 0.2666666666666667 0  0.5 0.2666666666666667 0  0.5333333333333333 0.2666666666666667 0  0.5666666666666667 0.2666666666666667 0  0.6 0.2666666666666667 0  0.6333333333333333 0.2666666666666667 0  0.6666666666666666 0.2666666666666667 0  0.7 0.2666666666666667 0  0.7333333333333333 0.2666666666666667 0  0.7666666666666667 0.2666666666666667 0  0.8 0.2666666666666667 0  0.8333333333333334 0.2666666666666667 0  0.8666666666666667 0.2666666666666667 0  0.9 0.2666666666666667 0  0.9333333333333333 0.2666666666666667 0  0.9666666666666667 0.2666666666666667 0  1 0.2666666666666667 0  0 0.3 0  0.03333333333333333 0.3 0  0.06666666666666667 0.3 0  0.1 0.3 0  0.1333333333333333 0.3 0  0.1666666666666667 0.3 0  0.2 0.3 0  0.2333333333333333 0.3 0  0.2666666666666667 0.3 0  0.3 0.3 0  0.3333333333333333 0.3 0  0.3666666666666666 0.3 0  0.4 0.3 0  0.4333333333333333 0.3 0  0.4666666666666667 0.3 0  0.5 0.3 0  0.5333333333333333 0.3 0  0.5666666666666667 0.3 0  0.6 0.3 0  0.6333333333333333 0.3 0  0.6666666666666666 0.3 0  0.7 0.3 0  0.7333333333333333 0.3 0  0.7666666666666667 0.3 0  0.8 0.3 0  0.8333333333333334 0.3 0  0.8666666666666667 0.3 0  0.9 0.3 0  0.9333333333333333 0.3 0  0.9666666666666667 0.3 0  1 0.3 0  0 0.3333333333333333 0  0.03333333333333333 0.3333333333333333 0  0.06666666666666667 0.3333333333333333 0  0.1 0.3333333333333333 0  0.1333333333333333 0.3333333333333333 0  0.1666666666666667 0.3333333333333333 0  0.2 0.3333333333333333 0  0.2333333333333333 0.3333333333333333 0  0.2666666666666667 0.3333333333333333 0  0.3 0.3333333333333333 0  0.3333333333333333 0.3333333333333333 0  0.3666666666666666 0.3333333333333333 0  0.4 0.3333333333333333 0  0.4333333333333333 0.3333333333333333 0  0.4666666666666667 0.3333333333333333 0  0.5 0.3333333333333333 0  0.5333333333333333 0.33333333333333
[...]
<PointData  Scalars="q_f"> 
<DataArray  type="Float64"  Name="q_f"  format="ascii">9.9873977897389010e-01  9.9873977897395505e-01  9.9873977897389254e-01  9.9873977897391741e-01  9.9873977897383459e-01  9.9873977897406829e-01  9.9873977897388755e-01  9.9873977897397714e-01  9.9873977897390598e-01  9.9873977897398825e-01  9.9873977897401733e-01  9.9873977897399469e-01  9.9873977897690969e-01  9.9873977897421107e-01  9.9873977897372557e-01  9.9873977897407529e-01  9.9873977897392463e-01  9.9873977897377619e-01  9.9873977897388355e-01  9.9873977897377730e-01  9.9873977897385469e-01  9.9873977897390342e-01  9.9873977897376187e-01  9.9873977897079413e-01  9.9873977897363075e-01  9.9873977897383559e-01  9.9873977897381649e-01  9.9873977897368560e-01  9.9873977897397437e-01  9.9873977897379773e-01  9.9873977897389010e-01  9.9884873010372799e-01  9.9884873010395359e-01  9.9884873010373376e-01  9.9884873010376651e-01  9.9884873010363140e-01  9.9884873010381692e-01  9.9884873010374131e-01  9.9884873010377162e-01  9.9884873010377839e-01  9.9884873010375630e-01  9.9884873010398101e-01  9.9884873010675890e-01  9.9884873010655117e-01  9.9884873010379860e-01  9.9884873010368569e-01  9.9884873010369379e-01  9.9884873010359909e-01  9.9884873010373176e-01  9.9884873010382702e-01  9.9884873010368880e-01  9.9884873010363728e-01  9.9884873010351338e-01  9.9884873010070163e-01  9.9884873010082609e-01  9.9884873010363950e-01  9.9884873010375475e-01  9.9884873010383990e-01  9.9884873010374264e-01  9.9884873010367803e-01  9.9884873010362962e-01  9.9884873010372799e-01  9.9915674562678114e-01  9.9915674562672352e-01  9.9915674562683376e-01  9.9915674562695389e-01  9.9915674562686474e-01  9.9915674562690271e-01  9.9915674562684520e-01  9.9915674562673784e-01  9.9915674562698042e-01  9.9915674562693257e-01  9.9915674562692924e-01  9.9915674563032897e-01  9.9915674562947399e-01  9.9915674562698276e-01  9.9915674562682488e-01  9.9915674562669743e-01  9.9915674562683821e-01  9.9915674562702450e-01  9.9915674562681944e-01  9.9915674562680068e-01  9.9915674562666257e-01  9.9915674562664858e-01  9.9915674562349166e-01  9.9915674562423806e-01  9.9915674562667578e-01  9.9915674562680090e-01  9.9915674562690637e-01  9.9915674562681511e-01  9.9915674562694612e-01  9.9915674562677947e-01  9.9915674562678114e-01  9.9961056863215492e-01  9.9961056863206799e-01  9.9961056863208453e-01  9.9961056863199016e-01  9.9961056863205666e-01  9.9961056863210773e-01  9.9961056863191733e-01  9.9961056863204112e-01  9.9961056863197451e-01  9.9961056863205044e-01  9.9961056863218978e-01  9.9961056863517139e-01  9.9961056863167008e-01  9.9961056863215136e-01  9.9961056863206488e-01  9.9961056863184494e-01  9.9961056863209474e-01  9.9961056863211872e-01  9.9961056863206055e-01  9.9961056863203623e-01  9.9961056863198283e-01  9.9961056863172337e-01  9.9961056862905473e-01  9.9961056863224673e-01  9.9961056863200526e-01  9.9961056863193609e-01  9.9961056863204412e-01  9.9961056863206599e-01  9.9961056863200382e-01  9.9961056863213116e-01  9.9961056863215492e-01  1.0001317305327277e+00  1.0001317305328075e+00  1.0001317305326387e+00  1.0001317305325330e+00  1.0001317305325474e+00  1.0001317305326283e+00  1.0001317305325399e+00  1.0001317305326687e+00  1.0001317305325295e+00  1.0001317305327311e+00  1.0001317305326942e+00  1.0001317305326951e+00  1.0001317305326247e+00  1.0001317305326558e+00  1.0001317305326336e+00  1.0001317305323743e+00  1.0001317305326605e+00  1.0001317305326825e+00  1.0001317305326121e+00  1.0001317305326054e+00  1.0001317305325743e+00  1.0001317305324953e+00  1.0001317305323958e+00  1.0001317305327746e+00  1.0001317305323736e+00  1.0001317305327206e+00  1.0001317305325241e+00  1.0001317305326336e+00  1.0001317305326178e+00  1.0001317305326998e+00  1.0001317305327277e+00  1.0006301179839214e+00  1.0006301179839692e+00  1.0006301179839889e+00  1.0006301179838963e+00  1.0006301179838983e+00  1.0006301179839521e+00  1.0006301179838861e+00  1.0006301179838286e+00  1.0006301179839936e+00  1.0006301179838712e+00  1.0006301179839665e+00  1.0006301179838943e+00  1.0006301179839958e+00  1.0006301179838342e+00  1.0006301179839610e+00  1.0006301179839456e+00  1.0006301179838319e+00  1.0006301179839836e+00  1.0006301179839896e+00  1.0006301179837851e+00  1.0006301179840600e+00  1.0006301179838224e+00  1.0006301179841230e+00  1.0006301179838151e+00  1.0006301179838084e+00  1.0006301179838770e+00  1.0006301179839030e+00  1.0006301179838912e+00  1.0006301179838271e+00  1.0006301179837891e+00  1.0006301179839214e+00  1.0010195541729867e+00  1.0010195541729294e+00  1.0010195541730791e+00  1.0010195541730174e+00  1.0010195541730786e+00  1.0010195541730771e+00  1.0010195541732019e+00  1.0010195541731601e+00  1.0010195541728986e+00  1.0010195541730034e+00  1.0010195541731643e+00  1.0010195541731406e+00  1.0010195541729974e+00  1.0010195541731222e+00  1.0010195541731568e+00  1.0010195541728732e+00  1.0010195541730489e+00  1.0010195541730251e+00  1.0010195541730120e+00  1.0010195541731182e+00  1.0010195541729170e+00  1.0010195541730658e+00  1.0010195541731075e+00  1.0010195541728411e+00  1.0010195541731148e+00  1.0010195541730840e+00  1.0010195541730951e+00  1.0010195541730060e+00  1.0010195541731681e+00  1.0010195541731424e+00  1.0010195541729867e+00  1.0012327003367099e+00  1.0012327003365984e+00  1.0012327003367709e+00  1.0012327003366686e+00  1.0012327003366979e+00  1.0012327003366981e+00  1.0012327003368349e+00  1.0012327003365835e+00  1.0012327003367663e+00  1.0012327003366797e+00  1.0012327003367780e+00  1.0012327003369037e+00  1.0012327003365611e+00  1.0012327003366768e+00  1.0012327003365038e+00  1.0012327003366850e+00  1.0012327003366015e+00  1.0012327003365573e+00  1.0012327003366330e+00  1.0012327003365389e+00  1.0012327003366934e+00  1.0012327003367762e+00  1.0012327003368318e+00  1.0012327003366659e+00  1.0012327003365959e+00  1.0012327003366861e+00  1.0012327003367181e+00  1.0012327003366723e+00  1.0012327003367303e+00  1.0012327003368582e+00  1.0012327003367099e+00  1.0012327003369281e+00  1.0012327003369228e+00  1.0012327003368624e+00  1.0012327003368202e+00  1.0012327003367087e+00  1.0012327003368997e+00  1.0012327003370438e+00  1.0012327003369346e+00  1.0012327003369481e+00  1.0012327003368202e+00  1.0012327003369081e+00  1.0012327003368828e+00  1.0012327003366528e+00  1.0012327003367809e+00  1.0012327003369736e+00  1.0012327003368056e+00  1.0012327003366266e+00  1.0012327003368457e+00  1.0012327003367298e+00  1.0012327003369090e+00  1.0012327003367616e+00  1.0012327003370003e+00  1.0012327003370278e+00  1.0012327003370143e+00  1.0012327003369901e+00  1.0012327003368575e+00  1.0012327003369277e+00  1.0012327003368700e+00  1.0012327003368795e+00  1.0012327003368378e+00  1.0012327003369281e+00  1.0010195541732207e+00  1.0010195541732627e+00  1.0010195541728917e+00  1.0010195541730953e+00  1.0010195541731526e+00  1.0010195541730833e+00  1.0010195541732081e+00  1.0010195541731848e+00  1.0010195541732720e+00  1.0010195541730942e+00  1.0010195541731530e+00  1.0010195541730604e+00  1.0010195541732938e+00  1.0010195541731464e+00  1.0010195541732803e+00  1.0010195541730371e+00  1.0010195541731028e+00  1.0010195541731570e+00  1.0010195541731015e+00  1.0010195541731204e+00  1.0010195541732574e+00  1.0010195541731375e+00  1.0010195541731253e+00  1.0010195541731719e+00  1.0010195541732458e+00  1.0010195541732194e+00  1.0010195541732283e+00  1.0010195541730749e+00  1.0010195541730491e+00  1.0010195541733680e+00  1.0010195541732207e+00  1.0006301179836912e+00  1.0006301179834747e+00  1.0006301179837003e+00  1.0006301179834480e+00  1.0006301179837265e+00  1.0006301179838026e+00  1.0006301179841048e+00  1.0006301179839456e+00  1.0006301179837296e+00  1.0006301179837582e+00  1.0006301179839419e+00  1.0006301179839519e+00  1.0006301179839032e+00  1.0006301179838426e+00  1.0006301179838857e+00  1.0006301179838164e+00  1.0006301179839123e+00  1.0006301179839026e+00  1.0006301179839896e+00  1.0006301179839476e+00  1.0006301179837991e+00  1.0006301179837485e+00  1.0006301179839041e+00  1.0006301179838140e+00  1.0006301179838990e+00  1.0006301179840211e+00  1.0006301179836949e+00  1.0006301179838670e+00  1.0006301179837955e+00  1.0006301179836115e+00  1.0006301179836912e+00  1.0001317305325179e+00  1.0001317305299036e+00  1.0001317305294981e+00  1.0001317305296427e+00  1.0001317305327106e+00  1.0001317305328721e+00  1.0001317305329245e+00  1.0001317305328830e+00  1.0001317305330351e+00  1.0001317305328565e+00  1.0001317305329045e+00  1.0001317305327795e+00  1.0001317305327586e+00  1.0001317305327908e+00  1.0001317305328641e+00  1.0001317305328508e+00  1.0001317305329127e+00  1.0001317305328981e+00  1.0001317305329742e+00  1.0001317305328288e+00  1.0001317305328108e+00  1.0001317305328616e+00  1.0001317305328741e+00  1.0001317305330100e+00  1.0001317305329527e+00  1.0001317305327286e+00  1.0001317305328392e+00  1.0001317305328761e+00  1.0001317305327739e+00  1.0001317305330533e+00  1.0001317305325179e+00  9.9961056862892961e-01  9.9961056862901920e-01  9.9961056862930908e-01  9.9961056863231523e-01  9.9961056863199937e-01  9.9961056863200604e-01  9.9961056863184827e-01  9.9961056863198527e-01  9.9961056863189146e-01  9.9961056863201925e-01  9.9961056863191233e-01  9.9961056863199427e-01  9.9961056863182440e-01  9.9961056863204145e-01  9.9961056863195552e-01  9.9961056863188258e-01  9.9961056863195696e-01  9.9961056863195752e-01  9.9961056863187636e-01  9.9961056863214448e-01  9.9961056863184017e-01  9.9961056863203079e-01  9.9961056863192699e-01  9.9961056863192121e-01  9.9961056863188269e-01  9.9961056863200171e-01  9.9961056863196263e-01  9.9961056863185760e-01  9.9961056863197295e-01  9.9961056863193254e-01  9.9961056862892961e-01  9.9915674562646595e-01  9.9915674562665369e-01  9.9915674562668533e-01  9.9915674562690659e-01  9.9915674562671952e-01  9.9915674562676371e-01  9.9915674562702816e-01  9.9915674562678602e-01  9.9915674562671819e-01  9.9915674562691803e-01  9.9915674562695334e-01  9.9915674562691892e-01  9.9915674562690393e-01  9.9915674562695778e-01  9.9915674562687196e-01  9.9915674562685219e-01  9.9915674562678825e-01  9.9915674562693890e-01  9.9915674562690238e-01  9.9915674562681434e-01  9.9915674562689138e-01  9.9915674562687917e-01  9.9915674562698764e-01  9.9915674562696366e-01  9.9915674562700374e-01  9.9915674562686407e-01  9.9915674562690238e-01  9.9915674562689216e-01  9.9915674562688894e-01  9.9915674562693435e-01  9.9915674562646595e-01  9.9884873010385322e-01  9.9884873010371100e-01  9.9884873010376196e-01  9.9884873010363395e-01  9.9884873010374420e-01  9.9884873010381237e-01  9.9884873010361608e-01  9.9884873010377917e-01  9.9884873010377917e-01  9.9884873010377884e-01  9.9884873010378894e-01  9.9884873010375663e-01  9.9884873010372022e-01  9.9884873010383257e-01  9.9884873010364150e-01  9.9884873010377562e-01  9.9884873010360220e-01  9.9884873010377218e-01  9.9884873010350772e-01  9.9884873010376962e-01  9.9884873010369801e-01  9.9884873010358421e-01  9.9884873010377806e-01  9.9884873010355846e-01  9.9884873010370634e-01  9.9884873010386288e-01  9.9884873010371822e-01  9.9884873010364750e-01  9.9884873010364594e-01  9.9884873010355846e-01  9.9884873010385322e-01  9.9873977897394783e-01  9.9873977897402610e-01  9.9873977897387911e-01  9.9873977897381083e-01  9.9873977897382626e-01  9.9873977897391886e-01  9.9873977897399346e-01  9.9873977897393085e-01  9.9873977897392929e-01  9.9873977897394317e-01  9.9873977897394617e-01  9.9873977897390309e-01  9.9873977897400912e-01  9.9873977897388677e-01  9.9873977897384791e-01  9.9873977897390764e-01  9.9873977897387545e-01  9.9873977897381039e-01  9.9873977897383814e-01  9.9873977897376809e-01  9.9873977897379629e-01  9.9873977897391975e-01  9.9873977897378985e-01  9.9873977897406985e-01  9.9873977897376442e-01  9.9873977897395394e-01  9.9873977897385602e-01  9.9873977897398181e-01  9.9873977897378308e-01  9.9873977897377386e-01  9.9873977897394783e-01  9.9884873010381858e-01  9.9884873010391750e-01  9.9884873010369446e-01  9.9884873010375363e-01  9.9884873010372144e-01  9.9884873010382524e-01  9.9884873010368025e-01  9.9884873010377229e-01  9.9884873010361253e-01  9.9884873010364461e-01  9.9884873010358988e-01  9.9884873010363628e-01  9.9884873010371700e-01  9.9884873010372499e-01  9.9884873010360520e-01  9.9884873010365161e-01  9.9884873010366038e-01  9.9884873010364361e-01  9.9884873010353481e-01  9.9884873010350494e-01  9.9884873010370556e-01  9.9884873010372499e-01  9.9884873010389275e-01  9.9884873010367514e-01  9.9884873010362185e-01  9.9884873010373698e-01  9.9884873010353381e-01  9.9884873010364050e-01  9.9884873010354691e-01  9.9884873010360198e-01  9.9884873010381858e-01  9.9915674562686996e-01  9.9915674562689127e-01  9.9915674562707779e-01  9.9915674562690682e-01  9.9915674562680945e-01  9.9915674562692280e-01  9.9915674562694157e-01  9.9915674562688128e-01  9.9915674562701462e-01  9.9915674562686396e-01  9.9915674562693790e-01  9.9915674562702861e-01  9.9915674562694112e-01  9.9915674562699075e-01  9.9915674562685808e-01  9.9915674562684098e-01  9.9915674562690682e-01  9.9915674562691326e-01  9.9915674562690637e-01  9.9915674562685541e-01  9.9915674562677947e-01  9.9915674562673384e-01  9.9915674562686552e-01  9.9915674562701606e-01  9.9915674562678580e-01  9.9915674562694745e-01  9.9915674562668277e-01  9.9915674562692780e-01  9.9915674562685519e-01  9.9915674562673762e-01  9.9915674562686996e-01  9.9961056863200448e-01  9.9961056863209952e-01  9.9961056863204201e-01  9.9961056863207554e-01  9.9961056863214226e-01  9.9961056863203801e-01  9.9961056863205688e-01  9.9961056863206399e-01  9.9961056863212283e-01  9.9961056863202469e-01  9.9961056863201392e-01  9.9961056863193942e-01  9.9961056863196940e-01  9.9961056863193176e-01  9.9961056863210851e-01  9.9961056863209574e-01  9.9961056863203634e-01  9.9961056863214359e-01  9.9961056863212550e-01  9.9961056863203734e-01  9.9961056863207987e-01  9.9961056863199016e-01  9.9961056863216524e-01  9.9961056863203590e-01  9.9961056863187325e-01  9.9961056863205711e-01  9.9961056863210873e-01  9.9961056863192888e-01  9.9961056863225373e-01  9.9961056863209641e-01  9.9961056863200448e-01  1.0001317305326780e+00  1.0001317305328725e+00  1.0001317305326405e+00  1.0001317305325022e+00  1.0001317305323558e+00  1.0001317305325381e+00  1.0001317305326889e+00  1.0001317305327440e+00  1.0001317305327069e+00  1.0001317305325879e+00  1.0001317305325439e+00  1.0001317305324697e+00  1.0001317305326427e+00  1.0001317305325719e+00  1.0001317305325230e+00  1.0001317305327289e+00  1.0001317305326169e+00  1.0001317305326374e+00  1.0001317305327537e+00  1.0001317305324637e+00  1.0001317305326070e+00  1.0001317305326363e+00  1.0001317305326134e+00  1.0001317305325470e+00  1.0001317305325592e+00  1.0001317305325805e+00  1.0001317305325959e+00  1.0001317305326984e+00  1.0001317305327386e+00  1.0001317305324129e+00  1.0001317305326780e+00  1.0006301179840631e+00  1.0006301179838344e+00  1.0006301179839392e+00  1.0006301179840449e+00  1.0006301179839721e+00  1.0006301179836927e+00  1.0006301179839194e+00  1.0006301179839161e+00  1.0006301179840233e+00  1.0006301179839281e+00  1.0006301179840538e+00  1.0006301179837809e+00  1.0006301179838302e+00  1.0006301179839083e+00  1.0006301179837209e+00  1.0006301179838688e+00  1.0006301179839427e+00  1.0006301179839630e+00  1.0006301179840627e+00  1.0006301179838928e+00  1.0006301179839225e+00  1.0006301179837405e+00  1.0006301179839288e+00  1.0006301179839829e+00  1.0006301179838835e+00  1.0006301179838868e+00  1.0006301179837980e+00  1.0006301179838615e+00  1.0006301179838923e+00  1.0006301179840935e+00  1.0006301179840631e+00  1.0010195541731977e+00  1.0010195541732709e+00  1.0010195541730400e+00  1.0010195541732998e+00  1.0010195541730247e+00  1.0010195541730331e+00  1.0010195541731515e+00  1.0010195541729523e+00  1.0010195541730504e+00  1.0010195541730591e+00  1.0010195541730444e+00  1.0010195541731228e+00  1.0010195541730280e+00  1.0010195541731193e+00  1.0010195541730775e+00  1.0010195541729972e+00  1.0010195541730207e+00  1.0010195541729983e+00  1.0010195541729483e+00  1.0010195541729698e+00  1.0010195541730496e+00  1.0010195541729103e+00  1.0010195541730669e+00  1.0010195541731279e+00  1.0010195541731046e+00  1.0010195541731226e+00  1.0010195541729483e+00  1.0010195541730189e+00  1.0010195541729678e+00  1.0010195541731521e+00  1.0010195541731977e+00  1.0012327003370129e+00  1.0012327003397441e+00  1.0012327003402379e+00  1.0012327003397747e+00  1.0012327003367574e+00  1.0012327003366461e+00  1.0012327003367554e+00  1.0012327003367911e+00  1.0012327003368322e+00  1.0012327003368982e+00  1.0012327003366843e+00  1.0012327003367822e+00  1.0012327003365100e+00  1.0012327003367505e+00  1.0012327003367774e+00  1.0012327003364951e+00  1.0012327003369095e+00  1.0012327003367738e+00  1.0012327003368875e+00  1.0012327003366261e+00  1.0012327003365955e+00  1.0012327003366013e+00  1.0012327003366819e+00  1.0012327003369603e+00  1.0012327003368293e+00  1.0012327003367392e+00  1.0012327003367743e+00  1.0012327003366088e+00  1.0012327003367611e+00  1.0012327003366064e+00  1.0012327003370129e+00  1.0012327003398065e+00  1.0012327003398374e+00  1.0012327003394981e+00  1.0012327003366730e+00  1.0012327003367296e+00  1.0012327003368400e+00  1.0012327003369783e+00  1.0012327003368469e+00  1.0012327003368089e+00  1.0012327003368551e+00  1.0012327003368253e+00  1.0012327003368293e+00  1.0012327003369601e+00  1.0012327003370323e+00  1.0012327003368735e+00  1.0012327003369363e+00  1.0012327003367778e+00  1.0012327003369821e+00  1.0012327003368857e+00  1.0012327003369204e+00  1.0012327003368677e+00  1.0012327003369139e+00  1.0012327003368997e+00  1.0012327003368440e+00  1.0012327003368826e+00  1.0012327003369532e+00  1.0012327003370005e+00  1.0012327003369252e+00  1.0012327003368746e+00  1.0012327003370620e+00  1.0012327003398065e+00  1.0010195541733029e+00  1.0010195541732487e+00  1.0010195541734022e+00  1.0010195541732250e+00  1.0010195541734519e+00  1.0010195541731062e+00  1.0010195541730673e+00  1.0010195541732145e+00  1.0010195541730162e+00  1.0010195541732161e+00  1.0010195541731071e+00  1.0010195541731961e+00  1.0010195541731730e+00  1.0010195541730043e+00  1.0010195541732321e+00  1.0010195541731697e+00  1.0010195541731655e+00  1.0010195541730651e+00  1.0010195541731390e+00  1.0010195541729765e+00  1.0010195541732558e+00  1.0010195541733227e+00  1.0010195541731770e+00  1.0010195541730316e+00  1.0010195541731706e+00  1.0010195541730986e+00  1.0010195541731888e+00  1.0010195541730451e+00  1.0010195541731457e+00  1.0010195541732263e+00  1.0010195541733029e+00  1.0006301179836510e+00  1.0006301179836927e+00  1.0006301179839820e+00  1.0006301179839434e+00  1.0006301179839505e+00  1.0006301179840400e+00  1.0006301179838799e+00  1.0006301179839390e+00  1.0006301179838053e+00  1.0006301179838142e+00  1.0006301179837971e+00  1.0006301179838497e+00  1.0006301179839119e+00  1.0006301179836892e+00  1.0006301179839050e+00  1.0006301179839139e+00  1.0006301179839223e+00  1.0006301179838846e+00  1.0006301179839296e+00  1.0006301179837731e+00  1.0006301179838017e+00  1.0006301179840127e+00  1.0006301179840140e+00  1.0006301179838533e+00  1.0006301179838586e+00  1.0006301179838801e+00  1.0006301179838433e+00  1.0006301179838799e+00  1.0006301179837707e+00  1.0006301179838837e+00  1.0006301179836510e+00  1.0001317305328019e+00  1.0001317305329240e+00  1.0001317305328916e+00  1.0001317305328203e+00  1.0001317305328201e+00  1.0001317305329094e+00  1.0001317305329906e+00  1.0001317305328186e+00  1.0001317305328681e+00  1.0001317305327373e+00  1.0001317305328414e+00  1.0001317305327548e+00  1.0001317305328326e+00  1.0001317305328949e+00  1.0001317305328867e+00  1.0001317305327388e+00  1.0001317305327551e+00  1.0001317305329136e+00  1.0001317305328492e+00  1.0001317305328246e+00  1.0001317305327790e+00  1.0001317305329107e+00  1.0001317305328166e+00  1.0001317305327444e+0