<?xml version="1.0"?>
<VTKFile type="UnstructuredGrid"  version="0.1"  >
<UnstructuredGrid>
<Piece  NumberOfPoints="961" NumberOfCells="1800">
<Points>
<DataArray  type="Float64"  NumberOfComponents="3"  format="ascii">0 0 0  0.03333333333333333 0 0  0.06666666666666667 0 0  0.1 0 0  0.1333333333333333 0 0  0.1666666666666667 0 0  0.2 0 0  0.2333333333333333 0 0  0.2666666666666667 0 0  0.3 0 0  0.3333333333333333 0 0  0.3666666666666666 0 0  0.4 0 0  0.4333333333333333 0 0  0.4666666666666667 0 0  0.5 0 0  0.5333333333333333 0 0  0.5666666666666667 0 0  0.6 0 0  0.6333333333333333 0 0  0.6666666666666666 0 0  0.7 0 0  0.7333333333333333 0 0  0.7666666666666667 0 0  0.8 0 0  0.8333333333333334 0 0  0.8666666666666667 0 0  0.9 0 0  0.9333333333333333 0 0  0.9666666666666667 0 0  1 0 0  0 0.03333333333333333 0  0.03333333333333333 0.03333333333333333 0  0.06666666666666667 0.03333333333333333 0  0.1 0.03333333333333333 0  0.1333333333333333 0.03333333333333333 0  0.1666666666666667 0.03333333333333333 0  0.2 0.03333333333333333 0  0.2333333333333333 0.03333333333333333 0  0.2666666666666667 0.03333333333333333 0  0.3 0.03333333333333333 0  0.3333333333333333 0.03333333333333333 0  0.3666666666666666 0.03333333333333333 0  0.4 0.03333333333333333 0  0.4333333333333333 0.03333333333333333 0  0.4666666666666667 0.03333333333333333 0  0.5 0.03333333333333333 0  0.5333333333333333 0.03333333333333333 0  0.5666666666666667 0.03333333333333333 0  0.6 0.03333333333333333 0  0.6333333333333333 0.03333333333333333 0  0.6666666666666666 0.03333333333333333 0  0.7 0.03333333333333333 0  0.7333333333333333 0.03333333333333333 0  0.7666666666666667 0.03333333333333333 0  0.8 0.03333333333333333 0  0.8333333333333334 0.03333333333333333 0  0.8666666666666667 0.03333333333333333 0  0.9 0.03333333333333333 0  0.9333333333333333 0.03333333333333333 0  0.9666666666666667 0.03333333333333333 0  1 0.03333333333333333 0  0 0.06666666666666667 0  0.03333333333333333 0.06666666666666667 0  0.06666666666666667 0.06666666666666667 0  0.1 0.06666666666666667 0  0.1333333333333333 0.06666666666666667 0  0.1666666666666667 0.06666666666666667 0  0.2 0.06666666666666667 0  0.2333333333333333 0.06666666666666667 0  0.2666666666666667 0.06666666666666667 0  0.3 0.06666666666666667 0  0.3333333333333333 0.06666666666666667 0  0.3666666666666666 0.06666666666666667 0  0.4 0.06666666666666667 0  0.4333333333333333 0.06666666666666667 0  0.4666666666666667 0.06666666666666667 0  0.5 0.06666666666666667 0  0.5333333333333333 0.06666666666666667 0  0.5666666666666667 0.06666666666666667 0  0.6 0.06666666666666667 0  0.6333333333333333 0.06666666666666667 0  0.6666666666666666 0.06666666666666667 0  0.7 0.06666666666666667 0  0.7333333333333333 0.06666666666666667 0  0.7666666666666667 0.06666666666666667 0  0.8 0.06666666666666667 0  0.8333333333333334 0.06666666666666667 0  0.8666666666666667 0.06666666666666667 0  0.9 0.06666666666666667 0  0.9333333333333333 0.06666666666666667 0  0.9666666666666667 0.06666666666666667 0  1 0.06666666666666667 0  0 0.1 0  0.03333333333333333 0.1 0  0.06666666666666667 0.1 0  0.1 0.1 0  0.1333333333333333 0.1 0  0.1666666666666667 0.1 0  0.2 0.1 0  0.2333333333333333 0.1 0  0.2666666666666667 0.1 0  0.3 0.1 0  0.3333333333333333 0.1 0  0.3666666666666666 0.1 0  0.4 0.1 0  0.4333333333333333 0.1 0  0.4666666666666667 0.1 0  0.5 0.1 0  0.5333333333333333 0.1 0  0.5666666666666667 0.1 0  0.6 0.1 0  0.6333333333333333 0.1 0  0.6666666666666666 0.1 0  0.7 0.1 0  0.7333333333333333 0.1 0  0.7666666666666667 0.1 0  0.8 0.1 0  0.8333333333333334 0.1 0  0.8666666666666667 0.1 0  0.9 0.1 0  0.9333333333333333 0.1 0  0.9666666666666667 0.1 0  1 0.1 0  0 0.1333333333333333 0  0.03333333333333333 0.1333333333333333 0  0.06666666666666667 0.1333333333333333 0  0.1 0.1333333333333333 0  0.1333333333333333 0.1333333333333333 0  0.1666666666666667 0.1333333333333333 0  0.2 0.1333333333333333 0  0.2333333333333333 0.1333333333333333 0  0.2666666666666667 0.1333333333333333 0  0.3 0.1333333333333333 0  0.3333333333333333 0.1333333333333333 0  0.3666666666666666 0.1333333333333333 0  0.4 0.1333333333333333 0  0.4333333333333333 0.1333333333333333 0  0.4666666666666667 0.1333333333333333 0  0.5 0.1333333333333333 0  0.5333333333333333 0.1333333333333333 0  0.5666666666666667 0.1333333333333333 0  0.6 0.1333333333333333 0  0.6333333333333333 0.1333333333333333 0  0.6666666666666666 0.1333333333333333 0  0.7 0.1333333333333333 0  0.7333333333333333 0.1333333333333333 0  0.7666666666666667 0.1333333333333333 0  0.8 0.1333333333333333 0  0.8333333333333334 0.1333333333333333 0  0.8666666666666667 0.1333333333333333 0  0.9 0.1333333333333333 0  0.9333333333333333 0.1333333333333333 0  0.9666666666666667 0.1333333333333333 0  1 0.1333333333333333 0  0 0.1666666666666667 0  0.03333333333333333 0.1666666666666667 0  0.06666666666666667 0.1666666666666667 0  0.1 0.1666666666666667 0  0.1333333333333333 0.1666666666666667 0  0.1666666666666667 0.1666666666666667 0  0.2 0.1666666666666667 0  0.2333333333333333 0.1666666666666667 0  0.2666666666666667 0.1666666666666667 0  0.3 0.1666666666666667 0  0.3333333333333333 0.1666666666666667 0  0.3666666666666666 0.1666666666666667 0  0.4 0.1666666666666667 0  0.4333333333333333 0.1666666666666667 0  0.4666666666666667 0.1666666666666667 0  0.5 0.1666666666666667 0  0.5333333333333333 0.1666666666666667 0  0.5666666666666667 0.1666666666666667 0  0.6 0.1666666666666667 0  0.6333333333333333 0.1666666666666667 0  0.6666666666666666 0.1666666666666667 0  0.7 0.1666666666666667 0  0.7333333333333333 0.1666666666666667 0  0.7666666666666667 0.1666666666666667 0  0.8 0.1666666666666667 0  0.8333333333333334 0.1666666666666667 0  0.8666666666666667 0.1666666666666667 0  0.9 0.1666666666666667 0  0.9333333333333333 0.1666666666666667 0  0.9666666666666667 0.1666666666666667 0  1 0.1666666666666667 0  0 0.2 0  0.03333333333333333 0.2 0  0.06666666666666667 0.2 0  0.1 0.2 0  0.1333333333333333 0.2 0  0.1666666666666667 0.2 0  0.2 0.2 0  0.2333333333333333 0.2 0  0.2666666666666667 0.2 0  0.3 0.2 0  0.3333333333333333 0.2 0  0.3666666666666666 0.2 0  0.4 0.2 0  0.4333333333333333 0.2 0  0.4666666666666667 0.2 0  0.5 0.2 0  0.5333333333333333 0.2 0  0.5666666666666667 0.2 0  0.6 0.2 0  0.6333333333333333 0.2 0  0.6666666666666666 0.2 0  0.7 0.2 0  0.7333333333333333 0.2 0  0.7666666666666667 0.2 0  0.8 0.2 0  0.8333333333333334 0.2 0  0.8666666666666667 0.2 0  0.9 0.2 0  0.9333333333333333 0.2 0  0.9666666666666667 0.2 0  1 0.2 0  0 0.2333333333333333 0  0.03333333333333333 0.2333333333333333 0  0.06666666666666667 0.2333333333333333 0  0.1 0.2333333333333333 0  0.1333333333333333 0.2333333333333333 0  0.1666666666666667 0.2333333333333333 0  0.2 0.2333333333333333 0  0.2333333333333333 0.2333333333333333 0  0.2666666666666667 0.2333333333333333 0  0.3 0.2333333333333333 0  0.3333333333333333 0.2333333333333333 0  0.3666666666666666 0.2333333333333333 0  0.4 0.2333333333333333 0  0.4333333333333333 0.2333333333333333 0  0.4666666666666667 0.2333333333333333 0  0.5 0.2333333333333333 0  0.5333333333333333 0.2333333333333333 0  0.5666666666666667 0.2333333333333333 0  0.6 0.2333333333333333 0  0.6333333333333333 0.2333333333333333 0  0.6666666666666666 0.2333333333333333 0  0.7 0.2333333333333333 0  0.7333333333333333 0.2333333333333333 0  0.7666666666666667 0.2333333333333333 0  0.8 0.2333333333333333 0  0.8333333333333334 0.2333333333333333 0  0.8666666666666667 0.2333333333333333 0  0.9 0.2333333333333333 0  0.9333333333333333 0.2333333333333333 0  0.9666666666666667 0.2333333333333333 0  1 0.2333333333333333 0  0 0.2666666666666667 0  0.03333333333333333 0.2666666666666667 0  0.06666666666666667 0.2666666666666667 0  0.1 0.2666666666666667 0  0.1333333333333333 0.2666666666666667 0  0.1666666666666667 0.2666666666666667 0  0.2 0.2666666666666667 0  0.2333333333333333 0.2666666666666667 0  0.2666666666666667 0.2666666666666667 0  0.3 0.2666666666666667 0  0.3333333333333333 0.2666666666666667 0  0.3666666666666666 0.2666666666666667 0  0.4 0.2666666666666667 0  0.4333333333333333 0.2666666666666667 0  0.4666666666666667 0.2666666666666667 0  0.5 0.2666666666666667 0  0.5333333333333333 0.2666666666666667 0  0.5666666666666667 0.2666666666666667 0  0.6 0.2666666666666667 0  0.6333333333333333 0.2666666666666667 0  0.6666666666666666 0.2666666666666667 0  0.7 0.2666666666666667 0  0.7333333333333333 0.2666666666666667 0  0.7666666666666667 0.2666666666666667 0  0.8 0.2666666666666667 0  0.8333333333333334 0.2666666666666667 0  0.8666666666666667 0.2666666666666667 0  0.9 0.2666666666666667 0  0.9333333333333333 0.2666666666666667 0  0.9666666666666667 0.2666666666666667 0  1 0.2666666666666667 0  0 0.3 0  0.03333333333333333 0.3 0  0.06666666666666667 0.3 0  0.1 0.3 0  0.1333333333333333 0.3 0  0.1666666666666667 0.3 0  0.2 0.3 0  0.2333333333333333 0.3 0  0.2666666666666667 0.3 0  0.3 0.3 0  0.3333333333333333 0.3 0  0.3666666666666666 0.3 0  0.4 0.3 0  0.4333333333333333 0.3 0  0.4666666666666667 0.3 0  0.5 0.3 0  0.5333333333333333 0.3 0  0.5666666666666667 0.3 0  0.6 0.3 0  0.6333333333333333 0.3 0  0.6666666666666666 0.3 0  0.7 0.3 0  0.7333333333333333 0.3 0  0.7666666666666667 0.3 0  0.8 0.3 0  0.8333333333333334 0.3 0  0.8666666666666667 0.3 0  0.9 0.3 0  0.9333333333333333 0.3 0  0.9666666666666667 0.3 0  1 0.3 0  0 0.3333333333333333 0  0.03333333333333333 0.3333333333333333 0  0.06666666666666667 0.3333333333333333 0  0.1 0.3333333333333333 0  0.1333333333333333 0.3333333333333333 0  0.1666666666666667 0.3333333333333333 0  0.2 0.3333333333333333 0  0.2333333333333333 0.3333333333333333 0  0.2666666666666667 0.3333333333333333 0  0.3 0.3333333333333333 0  0.3333333333333333 0.3333333333333333 0  0.3666666666666666 0.3333333333333333 0  0.4 0.3333333333333333 0  0.4333333333333333 0.3333333333333333 0  0.4666666666666667 0.3333333333333333 0  0.5 0.3333333333333333 0  0.5333333333333333 0.33333333333333
[...]
<PointData  Vectors="u_f"> 
<DataArray  type="Float64"  Name="u_f"  NumberOfComponents="3" format="ascii">2.7100294487152825e-06 5.0153986041827879e-09 0.0000000000000000e+00  2.7100294480273562e-06 5.0154155971002777e-09 0.0000000000000000e+00  2.7100294637997873e-06 5.0154035434284150e-09 0.0000000000000000e+00  2.7100294386845150e-06 5.0153891568245276e-09 0.0000000000000000e+00  2.7100294456150606e-06 5.0154039698451294e-09 0.0000000000000000e+00  2.7100294487568074e-06 5.0154156036597008e-09 0.0000000000000000e+00  2.7100294545796236e-06 5.0154108846697451e-09 0.0000000000000000e+00  2.7100294515912371e-06 5.0154050431510701e-09 0.0000000000000000e+00  2.7100294467336319e-06 5.0154073598742722e-09 0.0000000000000000e+00  2.7100294525893537e-06 5.0154153454027434e-09 0.0000000000000000e+00  2.7100294569908350e-06 5.0154291513621573e-09 0.0000000000000000e+00  2.7100294501671376e-06 5.0153784112425860e-09 0.0000000000000000e+00  2.7100294327184757e-06 5.0154046167343556e-09 0.0000000000000000e+00  2.7100294504047947e-06 5.0154234028680286e-09 0.0000000000000000e+00  2.7100294539379927e-06 5.0154124699359516e-09 0.0000000000000000e+00  2.7100294420633769e-06 5.0154105401102947e-09 0.0000000000000000e+00  2.7100294612853056e-06 5.0154102110549353e-09 0.0000000000000000e+00  2.7100294517624327e-06 5.0153921316042384e-09 0.0000000000000000e+00  2.7100294475016808e-06 5.0154058477375023e-09 0.0000000000000000e+00  2.7100294449716408e-06 5.0154015992370793e-09 0.0000000000000000e+00  2.7100294487079641e-06 5.0153958624523341e-09 0.0000000000000000e+00  2.7100294540904858e-06 5.0154047493864914e-09 0.0000000000000000e+00  2.7100294629628916e-06 5.0154486270484119e-09 0.0000000000000000e+00  2.7100294685752100e-06 5.0154209160335056e-09 0.0000000000000000e+00  2.7100294576177207e-06 5.0154120421097743e-09 0.0000000000000000e+00  2.7100294505563120e-06 5.0153983391495668e-09 0.0000000000000000e+00  2.7100294485442496e-06 5.0154058508816886e-09 0.0000000000000000e+00  2.7100294415717454e-06 5.0153997809216158e-09 0.0000000000000000e+00  2.7100294597668805e-06 5.0154074295342618e-09 0.0000000000000000e+00  2.7100294495300604e-06 5.0154073187287998e-09 0.0000000000000000e+00  2.7100294487153909e-06 -1.1836069518030948e-09 0.0000000000000000e+00  4.1705494477050568e-04 9.6035908879162427e-09 0.0000000000000000e+00  4.1705494476764133e-04 9.6035993435005657e-09 0.0000000000000000e+00  4.1705494477256837e-04 9.6036023172502843e-09 0.0000000000000000e+00  4.1705494476302880e-04 9.6036029858777641e-09 0.0000000000000000e+00  4.1705494476771646e-04 9.6036068976792024e-09 0.0000000000000000e+00  4.1705494477754183e-04 9.6036192934710607e-09 0.0000000000000000e+00  4.1705494477355489e-04 9.6036021831344756e-09 0.0000000000000000e+00  4.1705494477367730e-04 9.6036161467910955e-09 0.0000000000000000e+00  4.1705494477611339e-04 9.6036126709473507e-09 0.0000000000000000e+00  4.1705494477241810e-04 9.6036206837435065e-09 0.0000000000000000e+00  4.1705494478675321e-04 9.6036164677149385e-09 0.0000000000000000e+00  4.1705494475717574e-04 9.6035753402402488e-09 0.0000000000000000e+00  4.1705494474710198e-04 9.6035956378059603e-09 0.0000000000000000e+00  4.1705494477786698e-04 9.6036003239445902e-09 0.0000000000000000e+00  4.1705494476859141e-04 9.6035912122011124e-09 0.0000000000000000e+00  4.1705494477274542e-04 9.6036003387981600e-09 0.0000000000000000e+00  4.1705494476913330e-04 9.6036027927813572e-09 0.0000000000000000e+00  4.1705494476870515e-04 9.6036064829718715e-09 0.0000000000000000e+00  4.1705494477602145e-04 9.6036065001022658e-09 0.0000000000000000e+00  4.1705494476811642e-04 9.6036056797949021e-09 0.0000000000000000e+00  4.1705494477329110e-04 9.6036098124483230e-09 0.0000000000000000e+00  4.1705494476805961e-04 9.6035967672193634e-09 0.0000000000000000e+00  4.1705494479581540e-04 9.6036171552075361e-09 0.0000000000000000e+00  4.1705494477665061e-04 9.6036107387906591e-09 0.0000000000000000e+00  4.1705494479000159e-04 9.6036010930776114e-09 0.0000000000000000e+00  4.1705494475890656e-04 9.6035937868560114e-09 0.0000000000000000e+00  4.1705494476567382e-04 9.6036116944064540e-09 0.0000000000000000e+00  4.1705494477849755e-04 9.6036052737611885e-09 0.0000000000000000e+00  4.1705494477126755e-04 9.6035962512475495e-09 0.0000000000000000e+00  4.1705494476432128e-04 9.6035978062103053e-09 0.0000000000000000e+00  4.1705494477050611e-04 -4.4879753017690877e-09 0.0000000000000000e+00  7.5928726222602018e-04 1.2481319288542604e-08 0.0000000000000000e+00  7.5928726222983885e-04 1.2481320638265889e-08 0.0000000000000000e+00  7.5928726222251376e-04 1.2481312536131474e-08 0.0000000000000000e+00  7.5928726221945544e-04 1.2481316654039745e-08 0.0000000000000000e+00  7.5928726223116884e-04 1.2481325401057612e-08 0.0000000000000000e+00  7.5928726221700731e-04 1.2481315107750607e-08 0.0000000000000000e+00  7.5928726223000039e-04 1.2481324075512036e-08 0.0000000000000000e+00  7.5928726223508302e-04 1.2481319985359340e-08 0.0000000000000000e+00  7.5928726223024596e-04 1.2481332476886250e-08 0.0000000000000000e+00  7.5928726222553792e-04 1.2481329921746991e-08 0.0000000000000000e+00  7.5928726223764315e-04 1.2481334466614077e-08 0.0000000000000000e+00  7.5928726220746536e-04 1.2481291134631110e-08 0.0000000000000000e+00  7.5928726221191829e-04 1.2481312542853527e-08 0.0000000000000000e+00  7.5928726222419351e-04 1.2481326537626750e-08 0.0000000000000000e+00  7.5928726222829798e-04 1.2481328373506288e-08 0.0000000000000000e+00  7.5928726222722820e-04 1.2481342266472926e-08 0.0000000000000000e+00  7.5928726223927173e-04 1.2481339330453443e-08 0.0000000000000000e+00  7.5928726222519087e-04 1.2481324335612137e-08 0.0000000000000000e+00  7.5928726222892270e-04 1.2481320402668757e-08 0.0000000000000000e+00  7.5928726222630890e-04 1.2481326332929379e-08 0.0000000000000000e+00  7.5928726222982388e-04 1.2481319665736540e-08 0.0000000000000000e+00  7.5928726222967925e-04 1.2481320788427890e-08 0.0000000000000000e+00  7.5928726224059955e-04 1.2481359963796568e-08 0.0000000000000000e+00  7.5928726224334508e-04 1.2481333797769757e-08 0.0000000000000000e+00  7.5928726222515238e-04 1.2481327731983863e-08 0.0000000000000000e+00  7.5928726222068775e-04 1.2481326383127940e-08 0.0000000000000000e+00  7.5928726224084285e-04 1.2481319268159603e-08 0.0000000000000000e+00  7.5928726222135431e-04 1.2481320742349297e-08 0.0000000000000000e+00  7.5928726223544287e-04 1.2481311476649111e-08 0.0000000000000000e+00  7.5928726222071659e-04 1.2481322787805116e-08 0.0000000000000000e+00  7.5928726222602039e-04 -6.9866692896438828e-09 0.0000000000000000e+00  9.7023195020242282e-04 1.3271328990621667e-08 0.0000000000000000e+00  9.7023195019933480e-04 1.3271326308956014e-08 0.0000000000000000e+00  9.7023195020452986e-04 1.3271334000503066e-08 0.0000000000000000e+00  9.7023195020913447e-04 1.3271344289798523e-08 0.0000000000000000e+00  9.7023195019535838e-04 1.3271346170455611e-08 0.0000000000000000e+00  9.7023195021304475e-04 1.3271343187815435e-08 0.0000000000000000e+00  9.7023195021053482e-04 1.3271339168244300e-08 0.0000000000000000e+00  9.7023195020195466e-04 1.3271333955400255e-08 0.0000000000000000e+00  9.7023195020390601e-04 1.3271331749265675e-08 0.0000000000000000e+00  9.7023195020697972e-04 1.3271338035686711e-08 0.0000000000000000e+00  9.7023195020971300e-04 1.3271323214643013e-08 0.0000000000000000e+00  9.7023195018516709e-04 1.3271330523900379e-08 0.0000000000000000e+00  9.7023195021115520e-04 1.3271329324339096e-08 0.0000000000000000e+00  9.7023195020312257e-04 1.3271327805155012e-08 0.0000000000000000e+00  9.7023195020196052e-04 1.3271337657733834e-08 0.0000000000000000e+00  9.7023195021217023e-04 1.3271325143655519e-08 0.0000000000000000e+00  9.7023195021147808e-04 1.3271334625654038e-08 0.0000000000000000e+00  9.7023195020079630e-04 1.3271329834130957e-08 0.0000000000000000e+00  9.7023195020562057e-04 1.3271327261536042e-08 0.0000000000000000e+00  9.7023195020144834e-04 1.3271335383294516e-08 0.0000000000000000e+00  9.7023195020414042e-04 1.3271334937904264e-08 0.0000000000000000e+00  9.7023195020770592e-04 1.3271339953857195e-08 0.0000000000000000e+00  9.7023195021648774e-04 1.3271318925539219e-08 0.0000000000000000e+00  9.7023195019972836e-04 1.3271322195059290e-08 0.0000000000000000e+00  9.7023195019801142e-04 1.3271334628039283e-08 0.0000000000000000e+00  9.7023195020312994e-04 1.3271339675000396e-08 0.0000000000000000e+00  9.7023195021417948e-04 1.3271333060933463e-08 0.0000000000000000e+00  9.7023195020122239e-04 1.3271322782913708e-08 0.0000000000000000e+00  9.7023195019820289e-04 1.3271336211624976e-08 0.0000000000000000e+00  9.7023195019871507e-04 1.3271328021344925e-08 0.0000000000000000e+00  9.7023195020242304e-04 -8.2863049788870836e-09 0.0000000000000000e+00  1.0134147707093228e-03 1.1891572805665732e-08 0.0000000000000000e+00  1.0134147707113340e-03 1.1891576656209747e-08 0.0000000000000000e+00  1.0134147707037600e-03 1.1891582282460081e-08 0.0000000000000000e+00  1.0134147707176354e-03 1.1891581117268006e-08 0.0000000000000000e+00  1.0134147707157718e-03 1.1891568219598962e-08 0.0000000000000000e+00  1.0134147707166409e-03 1.1891568581830908e-08 0.0000000000000000e+00  1.0134147707164605e-03 1.1891571124393423e-08 0.0000000000000000e+00  1.0134147707066346e-03 1.1891568811790189e-08 0.0000000000000000e+00  1.0134147707100494e-03 1.1891577124151405e-08 0.0000000000000000e+00  1.0134147707169564e-03 1.1891572466093611e-08 0.0000000000000000e+00  1.0134147707110328e-03 1.1891579299819904e-08 0.0000000000000000e+00  1.0134147707116302e-03 1.1891581136783645e-08 0.0000000000000000e+00  1.0134147707170503e-03 1.1891593198099133e-08 0.0000000000000000e+00  1.0134147707230807e-03 1.1891577179879396e-08 0.0000000000000000e+00  1.0134147707070084e-03 1.1891569879295648e-08 0.0000000000000000e+00  1.0134147707206609e-03 1.1891581907976650e-08 0.0000000000000000e+00  1.0134147707094947e-03 1.1891584293221430e-08 0.0000000000000000e+00  1.0134147707163738e-03 1.1891583198177236e-08 0.0000000000000000e+00  1.0134147707086842e-03 1.1891574591021449e-08 0.0000000000000000e+00  1.0134147707135596e-03 1.1891576266655907e-08 0.0000000000000000e+00  1.0134147707112880e-03 1.1891563037546259e-08 0.0000000000000000e+00  1.0134147707135158e-03 1.1891572257059432e-08 0.0000000000000000e+00  1.0134147707170512e-03 1.1891577360290638e-08 0.0000000000000000e+00  1.0134147707065648e-03 1.1891573270680043e-08 0.0000000000000000e+00  1.0134147707070319e-03 1.1891569094116435e-08 0.0000000000000000e+00  1.0134147707139400e-03 1.1891586176589024e-08 0.0000000000000000e+00  1.0134147707107348e-03 1.1891583866262614e-08 0.0000000000000000e+00  1.0134147707152646e-03 1.1891570860173353e-08 0.0000000000000000e+00  1.0134147707097281e-03 1.1891575567996027e-08 0.0000000000000000e+00  1.0134147707062868e-03 1.1891578040519081e-08 0.0000000000000000e+00  1.0134147707093230e-03 -8.1882711326554369e-09 0.0000000000000000e+00  8.8136899660590316e-04 8.5333703881296935e-09 0.0000000000000000e+00  8.8136899660230740e-04 8.5333753607145374e-09 0.0000000000000000e+00  8.8136899661140592e-04 8.5333620342435343e-09 0.0000000000000000e+00  8.8136899659952133e-04 8.5333732860936803e-09 0.0000000000000000e+00  8.8136899661285138e-04 8.5333800784034505e-09 0.0000000000000000e+00  8.8136899660965439e-04 8.5333765908503223e-09 0.0000000000000000e+00  8.8136899660433573e-04 8.5333763759614517e-09 0.0000000000000000e+00  8.8136899661188622e-04 8.5333723324294494e-09 0.0000000000000000e+00  8.8136899660876112e-04 8.5333725088291429e-09 0.0000000000000000e+00  8.8136899661212442e-04 8.5333693544513423e-09 0.0000000000000000e+00  8.8136899660764818e-04 8.5333701587125138e-09 0.0000000000000000e+00  8.8136899660220299e-04 8.5333626655744593e-09 0.0000000000000000e+00  8.8136899660698866e-04 8.5333720350327935e-09 0.0000000000000000e+00  8.8136899660215269e-04 8.5333658683076768e-09 0.0000000000000000e+00  8.8136899661409366e-04 8.5333632924601555e-09 0.0000000000000000e+00  8.8136899660116227e-04 8.5333727667608397e-09 0.0000000000000000e+00  8.8136899661261827e-04 8.5333603311787617e-09 0.0000000000000000e+00  8.8136899660781146e-04 8.5333718003030232e-09 0.0000000000000000e+00  8.8136899661497880e-04 8.5333889739570151e-09 0.0000000000000000e+00  8.8136899660560348e-04 8.5333763324849446e-09 0.0000000000000000e+00  8.8136899660746777e-04 8.5333729005513878e-09 0.0000000000000000e+00  8.8136899660279237e-04 8.5333657818967637e-09 0.0000000000000000e+00  8.8136899660739871e-04 8.5333584372944069e-09 0.0000000000000000e+00  8.8136899660566507e-04 8.5333625530342738e-09 0.0000000000000000e+00  8.8136899660087268e-04 8.5333584540995405e-09 0.0000000000000000e+00  8.8136899660932273e-04 8.5333666540289912e-09 0.0000000000000000e+00  8.8136899661006433e-04 8.5333571340833955e-09 0.0000000000000000e+00  8.8136899660383580e-04 8.5333662514647246e-09 0.0000000000000000e+00  8.8136899660179024e-04 8.5333791479411461e-09 0.0000000000000000e+00  8.8136899661305391e-04 8.5333785978169638e-09 0.0000000000000000e+00  8.8136899660590359e-04 -6.7058906470991153e-09 0.0000000000000000e+00  5.9692649314989560e-04 3.6596237285154917e-09 0.0000000000000000e+00  5.9692649314723183e-04 3.6596386533173375e-09 0.0000000000000000e+00  5.9692649315545463e-04 3.6596250973207345e-09 0.0000000000000000e+00  5.9692649314057840e-04 3.6596292299741554e-09 0.0000000000000000e+00  5.9692649314061906e-04 3.6596188036897535e-09 0.0000000000000000e+00  5.9692649314505442e-04 3.6596296228348126e-09 0.0000000000000000e+00  5.9692649313872713e-04 3.6596295843998455e-09 0.0000000000000000e+00  5.9692649315622171e-04 3.6596346231210219e-09 0.0000000000000000e+00  5.9692649315303773e-04 3.6596284266345556e-09 0.0000000000000000e+00  5.9692649313962181e-04 3.6596280169145547e-09 0.0000000000000000e+00  5.9692649313995119e-04 3.6596249994172783e-09 0.0000000000000000e+00  5.9692649314074526e-04 3.6596301378850546e-09 0.0000000000000000e+00  5.9692649314397228e-04 3.6596442408616536e-09 0.0000000000000000e+00  5.9692649315675047e-04 3.6596418739398909e-09 0.0000000000000000e+00  5.9692649314613548e-04 3.6596328659003509e-09 0.0000000000000000e+00  5.9692649314313680e-04 3.6596263000262044e-09 0.0000000000000000e+00  5.9692649314097587e-04 3.6596315449626340e-09 0.0000000000000000e+00  5.9692649314361558e-04 3.6596325741415463e-09 0.0000000000000000e+00  5.9692649315758271e-04 3.6596278025677852e-09 0.0000000000000000e+00  5.9692649314500097e-04 3.6596369093239330e-09 0.0000000000000000e+00  5.9692649314374156e-04 3.6596292931289319e-09 0.0000000000000000e+00  5.9692649315001996e-04 3.6596228679300173e-09 0.0000000000000000e+00  5.9692649313937830e-04 3.6596309060965039e-09 0.0000000000000000e+00  5.9692649314246719e-04 3.6596467310572034e-09 0.0000000000000000e+00  5.9692649315030825e-04 3.6596396738768425e-09 0.0000000000000000e+00  5.9692649314795618e-04 3.6596303360772117e-09 0.0000000000000000e+00  5.9692649314474890e-04 3.6596281314605142e-09 0.0000000000000000e+00  5.9692649314459917e-04 3.6596259016361161e-09 0.0000000000000000e+00  5.9692649313830689e-04 3.6596165787984754e-09 0.0000000000000000e+00  5.9692649314604549e-04 3.6596346404140466e-09 0.0000000000000000e+00  5.9692649314989571e-04 -4.0647068620768538e-09 0.0000000000000000e+00  2.0926991320502456e-04 -1.9972925368715727e-09 0.0000000000000000e+00  2.0926991320096349e-04 -1.9973080381843712e-09 0.0000000000000000e+00  2.0926991320481634e-04 -1.9972932678135723e-09 0.0000000000000000e+00  2.0926991320571845e-04 -1.9972982519587219e-09 0.0000000000000000e+00  2.0926991320715228e-04 -1.9972975116519260e-09 0.0000000000000000e+00  2.0926991320380402e-04 -1.9973121544663392e-09 0.0000000000000000e+00  2.0926991319876502e-04 -1.9973087010384744e-09 0.0000000000000000e+00  2.0926991320896986e-04 -1.9972974815111056e-09 0.0000000000000000e+00  2.0926991320748082e-04 -1.9973089948030530e-09 0.0000000000000000e+00  2.0926991321467217e-04 -1.9973090326823664e-09 0.0000000000000000e+00  2.0926991319493527e-04 -1.9973121838346656e-09 0.0000000000000000e+00  2.0926991320329208e-04 -1.9972985659707761e-09 0.0000000000000000e+00  2.0926991320537974e-04 -1.9973034682722142e-09 0.0000000000000000e+00  2.0926991320448934e-04 -1.9972943548211180e-09 0.0000000000000000e+00  2.0926991321012692e-04 -1.9972978947141061e-09 0.0000000000000000e+00  2.0926991320045297e-04 -1.9973125001235444e-09 0.0000000000000000e+00  2.0926991320589886e-04 -1.9972971912024214e-09 0.0000000000000000e+00  2.0926991321484556e-04 -1.9972931648685761e-09 0.0000000000000000e+00  2.0926991320320849e-04 -1.9973169743277546e-09 0.0000000000000000e+00  2.0926991320402341e-04 -1.9973071549661764e-09 0.0000000000000000e+00  2.0926991319262015e-04 -1.9972870978087441e-09 0.0000000000000000e+00  2.0926991321506048e-04 -1.9972963289906437e-09 0.0000000000000000e+00  2.0926991320577930e-04 -1.9972983014389985e-09 0.0000000000000000e+00  2.0926991320431362e-04 -1.9973089622363303e-09 0.0000000000000000e+00  2.0926991320488882e-04 -1.9973085659197786e-09 0.0000000000000000e+00  2.0926991320747583e-04 -1.9973037630803374e-09 0.0000000000000000e+00  2.0926991320157143e-04 -1.9972934125681149e-09 0.0000000000000000e+00  2.0926991319958411e-04 -1.9973106143436007e-09 0.0000000000000000e+00  2.0926991320025681e-04 -1.9973039275809120e-09 0.0000000000000000e+00  2.0926991320197621e-04 -1.9972969558492348e-09 0.0000000000000000e+00  2.0926991320502456e-04 -6.8389670766895262e-10 0.0000000000000000e+00  -2.1457140364320121e-04 -7.4892416722415270e-09 0.0000000000000000e+00  -2.1457140364398780e-04 -7.4892444182545793e-09 0.0000000000000000e+00  -2.1457140364610449e-04 -7.4892349989229452e-09 0.0000000000000000e+00  -2.1457140363722308e-04 -7.4892398451982360e-09 0.0000000000000000e+00  -2.1457140364183539e-04 -7.4892435746910790e-09 0.0000000000000000e+00  -2.1457140364721059e-04 -7.4892296481141735e-09 0.0000000000000000e+00  -2.1457140364554455e-04 -7.4892339328811591e-09 0.0000000000000000e+00  -2.1457140363881106e-04 -7.4892452092884844e-09 0.0000000000000000e+00  -2.1457140364395240e-04 -7.4892380809844609e-09 0.0000000000000000e+00  -2.1457140364251399e-04 -7.4892356369759237e-09 0.0000000000000000e+00  -2.1457140364057717e-04 -7.4892257286148997e-09 0.0000000000000000e+00  -2.1457140363283239e-04 -7.4892316311741571e-09 0.0000000000000000e+00  -2.1457140363590160e-04 -7.4892423887365327e-09 0.0000000000000000e+00  -2.1457140364792735e-04 -7.4892353058063701e-09 0.0000000000000000e+00  -2.1457140364122167e-04 -7.4892404095796769e-09 0.0000000000000000e+00  -2.1457140364205418e-04 -7.4892293219319499e-09 0.0000000000000000e+00  -2.1457140363738002e-04 -7.4892443759164845e-09 0.0000000000000000e+00  -2.1457140364645566e-04 -7.4892379798283983e-09 0.0000000000000000e+00  -2.1457140363563868e-04 -7.4892297896025570e-09 0.0000000000000000e+00  -2.1457140364472587e-04 -7.4892388392754604e-09 0.0000000000000000e+00  -2.1457140363497900e-04 -7.4892435996277290e-09 0.0000000000000000e+00  -2.1457140365066768e-04 -7.4892443723386173e-09 0.0000000000000000e+00  -2.1457140364057001e-04 -7.4892419261074657e-09 0.0000000000000000e+00  -2.1457140364864352e-04 -7.4892573099605113e-09 0.0000000000000000e+00  -2.1457140364452372e-04 -7.4892474080504902e-09 0.0000000000000000e+00  -2.1457140364384154e-04 -7.4892423803339658e-09 0.0000000000000000e+00  -2.1457140364319611e-04 -7.4892364869904270e-09 0.0000000000000000e+00  -2.1457140364078984e-04 -7.4892383594075788e-09 0.0000000000000000e+00  -2.1457140363668678e-04 -7.4892370378735508e-09 0.0000000000000000e+00  -2.1457140364085006e-04 -7.4892302072914439e-09 0.0000000000000000e+00  -2.1457140364320137e-04 2.8713552092292863e-09 0.0000000000000000e+00  -6.0131140960315976e-04 -1.1796364635867189e-08 0.0000000000000000e+00  -6.0131140959990336e-04 -1.1796359025337787e-08 0.0000000000000000e+00  -6.0131140960186858e-04 -1.1796362485460600e-08 0.0000000000000000e+00  -6.0131140960792287e-04 -1.1796360042753105e-08 0