<?xml version="1.0"?>
<VTKFile type="UnstructuredGrid"  version="0.1"  >
<UnstructuredGrid>
<Piece  NumberOfPoints="961" NumberOfCells="1800">
<Points>
<DataArray  type="Float64"  NumberOfComponents="3"  format="ascii">0 0 0  0.03333333333333333 0 0  0.06666666666666667 0 0  0.1 0 0  0.1333333333333333 0 0  0.1666666666666667 0 0  0.2 0 0  0.2333333333333333 0 0  0.2666666666666667 0 0  0.3 0 0  0.3333333333333333 0 0  0.3666666666666666 0 0  0.4 0 0  0.4333333333333333 0 0  0.4666666666666667 0 0  0.5 0 0  0.5333333333333333 0 0  0.5666666666666667 0 0  0.6 0 0  0.6333333333333333 0 0  0.6666666666666666 0 0  0.7 0 0  0.7333333333333333 0 0  0.7666666666666667 0 0  0.8 0 0  0.8333333333333334 0 0  0.8666666666666667 0 0  0.9 0 0  0.9333333333333333 0 0  0.9666666666666667 0 0  1 0 0  0 0.03333333333333333 0  0.03333333333333333 0.03333333333333333 0  0.06666666666666667 0.03333333333333333 0  0.1 0.03333333333333333 0  0.1333333333333333 0.03333333333333333 0  0.1666666666666667 0.03333333333333333 0  0.2 0.03333333333333333 0  0.2333333333333333 0.03333333333333333 0  0.2666666666666667 0.03333333333333333 0  0.3 0.03333333333333333 0  0.3333333333333333 0.03333333333333333 0  0.3666666666666666 0.03333333333333333 0  0.4 0.03333333333333333 0  0.4333333333333333 0.03333333333333333 0  0.4666666666666667 0.03333333333333333 0  0.5 0.03333333333333333 0  0.5333333333333333 0.03333333333333333 0  0.5666666666666667 0.03333333333333333 0  0.6 0.03333333333333333 0  0.6333333333333333 0.03333333333333333 0  0.6666666666666666 0.03333333333333333 0  0.7 0.03333333333333333 0  0.7333333333333333 0.03333333333333333 0  0.7666666666666667 0.03333333333333333 0  0.8 0.03333333333333333 0  0.8333333333333334 0.03333333333333333 0  0.8666666666666667 0.03333333333333333 0  0.9 0.03333333333333333 0  0.9333333333333333 0.03333333333333333 0  0.9666666666666667 0.03333333333333333 0  1 0.03333333333333333 0  0 0.06666666666666667 0  0.03333333333333333 0.06666666666666667 0  0.06666666666666667 0.06666666666666667 0  0.1 0.06666666666666667 0  0.1333333333333333 0.06666666666666667 0  0.1666666666666667 0.06666666666666667 0  0.2 0.06666666666666667 0  0.2333333333333333 0.06666666666666667 0  0.2666666666666667 0.06666666666666667 0  0.3 0.06666666666666667 0  0.3333333333333333 0.06666666666666667 0  0.3666666666666666 0.06666666666666667 0  0.4 0.06666666666666667 0  0.4333333333333333 0.06666666666666667 0  0.4666666666666667 0.06666666666666667 0  0.5 0.06666666666666667 0  0.5333333333333333 0.06666666666666667 0  0.5666666666666667 0.06666666666666667 0  0.6 0.06666666666666667 0  0.6333333333333333 0.06666666666666667 0  0.6666666666666666 0.06666666666666667 0  0.7 0.06666666666666667 0  0.7333333333333333 0.06666666666666667 0  0.7666666666666667 0.06666666666666667 0  0.8 0.06666666666666667 0  0.8333333333333334 0.06666666666666667 0  0.8666666666666667 0.06666666666666667 0  0.9 0.06666666666666667 0  0.9333333333333333 0.06666666666666667 0  0.9666666666666667 0.06666666666666667 0  1 0.06666666666666667 0  0 0.1 0  0.03333333333333333 0.1 0  0.06666666666666667 0.1 0  0.1 0.1 0  0.1333333333333333 0.1 0  0.1666666666666667 0.1 0  0.2 0.1 0  0.2333333333333333 0.1 0  0.2666666666666667 0.1 0  0.3 0.1 0  0.3333333333333333 0.1 0  0.3666666666666666 0.1 0  0.4 0.1 0  0.4333333333333333 0.1 0  0.4666666666666667 0.1 0  0.5 0.1 0  0.5333333333333333 0.1 0  0.5666666666666667 0.1 0  0.6 0.1 0  0.6333333333333333 0.1 0  0.6666666666666666 0.1 0  0.7 0.1 0  0.7333333333333333 0.1 0  0.7666666666666667 0.1 0  0.8 0.1 0  0.8333333333333334 0.1 0  0.8666666666666667 0.1 0  0.9 0.1 0  0.9333333333333333 0.1 0  0.9666666666666667 0.1 0  1 0.1 0  0 0.1333333333333333 0  0.03333333333333333 0.1333333333333333 0  0.06666666666666667 0.1333333333333333 0  0.1 0.1333333333333333 0  0.1333333333333333 0.1333333333333333 0  0.1666666666666667 0.1333333333333333 0  0.2 0.1333333333333333 0  0.2333333333333333 0.1333333333333333 0  0.2666666666666667 0.1333333333333333 0  0.3 0.1333333333333333 0  0.3333333333333333 0.1333333333333333 0  0.3666666666666666 0.1333333333333333 0  0.4 0.1333333333333333 0  0.4333333333333333 0.1333333333333333 0  0.4666666666666667 0.1333333333333333 0  0.5 0.1333333333333333 0  0.5333333333333333 0.1333333333333333 0  0.5666666666666667 0.1333333333333333 0  0.6 0.1333333333333333 0  0.6333333333333333 0.1333333333333333 0  0.6666666666666666 0.1333333333333333 0  0.7 0.1333333333333333 0  0.7333333333333333 0.1333333333333333 0  0.7666666666666667 0.1333333333333333 0  0.8 0.1333333333333333 0  0.8333333333333334 0.1333333333333333 0  0.8666666666666667 0.1333333333333333 0  0.9 0.1333333333333333 0  0.9333333333333333 0.1333333333333333 0  0.9666666666666667 0.1333333333333333 0  1 0.1333333333333333 0  0 0.1666666666666667 0  0.03333333333333333 0.1666666666666667 0  0.06666666666666667 0.1666666666666667 0  0.1 0.1666666666666667 0  0.1333333333333333 0.1666666666666667 0  0.1666666666666667 0.1666666666666667 0  0.2 0.1666666666666667 0  0.2333333333333333 0.1666666666666667 0  0.2666666666666667 0.1666666666666667 0  0.3 0.1666666666666667 0  0.3333333333333333 0.1666666666666667 0  0.3666666666666666 0.1666666666666667 0  0.4 0.1666666666666667 0  0.4333333333333333 0.1666666666666667 0  0.4666666666666667 0.1666666666666667 0  0.5 0.1666666666666667 0  0.5333333333333333 0.1666666666666667 0  0.5666666666666667 0.1666666666666667 0  0.6 0.1666666666666667 0  0.6333333333333333 0.1666666666666667 0  0.6666666666666666 0.1666666666666667 0  0.7 0.1666666666666667 0  0.7333333333333333 0.1666666666666667 0  0.7666666666666667 0.1666666666666667 0  0.8 0.1666666666666667 0  0.8333333333333334 0.1666666666666667 0  0.8666666666666667 0.1666666666666667 0  0.9 0.1666666666666667 0  0.9333333333333333 0.1666666666666667 0  0.9666666666666667 0.1666666666666667 0  1 0.1666666666666667 0  0 0.2 0  0.03333333333333333 0.2 0  0.06666666666666667 0.2 0  0.1 0.2 0  0.1333333333333333 0.2 0  0.1666666666666667 0.2 0  0.2 0.2 0  0.2333333333333333 0.2 0  0.2666666666666667 0.2 0  0.3 0.2 0  0.3333333333333333 0.2 0  0.3666666666666666 0.2 0  0.4 0.2 0  0.4333333333333333 0.2 0  0.4666666666666667 0.2 0  0.5 0.2 0  0.5333333333333333 0.2 0  0.5666666666666667 0.2 0  0.6 0.2 0  0.6333333333333333 0.2 0  0.6666666666666666 0.2 0  0.7 0.2 0  0.7333333333333333 0.2 0  0.7666666666666667 0.2 0  0.8 0.2 0  0.8333333333333334 0.2 0  0.8666666666666667 0.2 0  0.9 0.2 0  0.9333333333333333 0.2 0  0.9666666666666667 0.2 0  1 0.2 0  0 0.2333333333333333 0  0.03333333333333333 0.2333333333333333 0  0.06666666666666667 0.2333333333333333 0  0.1 0.2333333333333333 0  0.1333333333333333 0.2333333333333333 0  0.1666666666666667 0.2333333333333333 0  0.2 0.2333333333333333 0  0.2333333333333333 0.2333333333333333 0  0.2666666666666667 0.2333333333333333 0  0.3 0.2333333333333333 0  0.3333333333333333 0.2333333333333333 0  0.3666666666666666 0.2333333333333333 0  0.4 0.2333333333333333 0  0.4333333333333333 0.2333333333333333 0  0.4666666666666667 0.2333333333333333 0  0.5 0.2333333333333333 0  0.5333333333333333 0.2333333333333333 0  0.5666666666666667 0.2333333333333333 0  0.6 0.2333333333333333 0  0.6333333333333333 0.2333333333333333 0  0.6666666666666666 0.2333333333333333 0  0.7 0.2333333333333333 0  0.7333333333333333 0.2333333333333333 0  0.7666666666666667 0.2333333333333333 0  0.8 0.2333333333333333 0  0.8333333333333334 0.2333333333333333 0  0.8666666666666667 0.2333333333333333 0  0.9 0.2333333333333333 0  0.9333333333333333 0.2333333333333333 0  0.9666666666666667 0.2333333333333333 0  1 0.2333333333333333 0  0 0.2666666666666667 0  0.03333333333333333 0.2666666666666667 0  0.06666666666666667 0.2666666666666667 0  0.1 0.2666666666666667 0  0.1333333333333333 0.2666666666666667 0  0.1666666666666667 0.2666666666666667 0  0.2 0.2666666666666667 0  0.2333333333333333 0.2666666666666667 0  0.2666666666666667 0.2666666666666667 0  0.3 0.2666666666666667 0  0.3333333333333333 0.2666666666666667 0  0.3666666666666666 0.2666666666666667 0  0.4 0.2666666666666667 0  0.4333333333333333 0.2666666666666667 0  0.4666666666666667 0.2666666666666667 0  0.5 0.2666666666666667 0  0.5333333333333333 0.2666666666666667 0  0.5666666666666667 0.2666666666666667 0  0.6 0.2666666666666667 0  0.6333333333333333 0.2666666666666667 0  0.6666666666666666 0.2666666666666667 0  0.7 0.2666666666666667 0  0.7333333333333333 0.2666666666666667 0  0.7666666666666667 0.2666666666666667 0  0.8 0.2666666666666667 0  0.8333333333333334 0.2666666666666667 0  0.8666666666666667 0.2666666666666667 0  0.9 0.2666666666666667 0  0.9333333333333333 0.2666666666666667 0  0.9666666666666667 0.2666666666666667 0  1 0.2666666666666667 0  0 0.3 0  0.03333333333333333 0.3 0  0.06666666666666667 0.3 0  0.1 0.3 0  0.1333333333333333 0.3 0  0.1666666666666667 0.3 0  0.2 0.3 0  0.2333333333333333 0.3 0  0.2666666666666667 0.3 0  0.3 0.3 0  0.3333333333333333 0.3 0  0.3666666666666666 0.3 0  0.4 0.3 0  0.4333333333333333 0.3 0  0.4666666666666667 0.3 0  0.5 0.3 0  0.5333333333333333 0.3 0  0.5666666666666667 0.3 0  0.6 0.3 0  0.6333333333333333 0.3 0  0.6666666666666666 0.3 0  0.7 0.3 0  0.7333333333333333 0.3 0  0.7666666666666667 0.3 0  0.8 0.3 0  0.8333333333333334 0.3 0  0.8666666666666667 0.3 0  0.9 0.3 0  0.9333333333333333 0.3 0  0.9666666666666667 0.3 0  1 0.3 0  0 0.3333333333333333 0  0.03333333333333333 0.3333333333333333 0  0.06666666666666667 0.3333333333333333 0  0.1 0.3333333333333333 0  0.1333333333333333 0.3333333333333333 0  0.1666666666666667 0.3333333333333333 0  0.2 0.3333333333333333 0  0.2333333333333333 0.3333333333333333 0  0.2666666666666667 0.3333333333333333 0  0.3 0.3333333333333333 0  0.3333333333333333 0.3333333333333333 0  0.3666666666666666 0.3333333333333333 0  0.4 0.3333333333333333 0  0.4333333333333333 0.3333333333333333 0  0.4666666666666667 0.3333333333333333 0  0.5 0.3333333333333333 0  0.5333333333333333 0.33333333333333
[...]
<PointData  Vectors="u_f"> 
<DataArray  type="Float64"  Name="u_f"  NumberOfComponents="3" format="ascii">2.7079956019688818e-06 -3.8015166396189980e-09 0.0000000000000000e+00  2.7079955897994713e-06 -3.8015134836148941e-09 0.0000000000000000e+00  2.7079955969439300e-06 -3.8015194347464087e-09 0.0000000000000000e+00  2.7079955917253397e-06 -3.8015260856762156e-09 0.0000000000000000e+00  2.7079955985928389e-06 -3.8015238773732307e-09 0.0000000000000000e+00  2.7079955903843984e-06 -3.8015298543629672e-09 0.0000000000000000e+00  2.7079955932953728e-06 -3.8015173680944377e-09 0.0000000000000000e+00  2.7079956014996391e-06 -3.8015147104980725e-09 0.0000000000000000e+00  2.7079956024206146e-06 -3.8015166246570080e-09 0.0000000000000000e+00  2.7079955918696470e-06 -3.8015266270725705e-09 0.0000000000000000e+00  2.7079955994334750e-06 -3.8015137018105813e-09 0.0000000000000000e+00  2.7079955756925374e-06 -3.8015814782157292e-09 0.0000000000000000e+00  2.7079955536983037e-06 -3.8015336170866068e-09 0.0000000000000000e+00  2.7079956049942937e-06 -3.8015010100315300e-09 0.0000000000000000e+00  2.7079956069943757e-06 -3.8015265695556452e-09 0.0000000000000000e+00  2.7079955916940062e-06 -3.8015142657041312e-09 0.0000000000000000e+00  2.7079956009858899e-06 -3.8015260638837520e-09 0.0000000000000000e+00  2.7079955882564890e-06 -3.8015176074320672e-09 0.0000000000000000e+00  2.7079955968345882e-06 -3.8015055546817764e-09 0.0000000000000000e+00  2.7079955997258843e-06 -3.8015329090483781e-09 0.0000000000000000e+00  2.7079955876139908e-06 -3.8015197173437050e-09 0.0000000000000000e+00  2.7079956100902608e-06 -3.8015474168118582e-09 0.0000000000000000e+00  2.7079956051955759e-06 -3.8014396066751721e-09 0.0000000000000000e+00  2.7079956440624890e-06 -3.8014967772520385e-09 0.0000000000000000e+00  2.7079956013628670e-06 -3.8015201868574558e-09 0.0000000000000000e+00  2.7079955954907738e-06 -3.8015214451824972e-09 0.0000000000000000e+00  2.7079955932899518e-06 -3.8015192442520870e-09 0.0000000000000000e+00  2.7079955976970168e-06 -3.8015192423005231e-09 0.0000000000000000e+00  2.7079956023632603e-06 -3.8015124139410307e-09 0.0000000000000000e+00  2.7079956070690772e-06 -3.8015248992337783e-09 0.0000000000000000e+00  2.7079956019689360e-06 8.5002248791314993e-10 0.0000000000000000e+00  4.1704764085654213e-04 -8.5586648360894829e-09 0.0000000000000000e+00  4.1704764085852654e-04 -8.5586448407993371e-09 0.0000000000000000e+00  4.1704764086160123e-04 -8.5586430232428151e-09 0.0000000000000000e+00  4.1704764085692876e-04 -8.5586421041646335e-09 0.0000000000000000e+00  4.1704764086898779e-04 -8.5586536857206602e-09 0.0000000000000000e+00  4.1704764086725101e-04 -8.5586478090196247e-09 0.0000000000000000e+00  4.1704764085438728e-04 -8.5586909669881431e-09 0.0000000000000000e+00  4.1704764085153745e-04 -8.5586748370955826e-09 0.0000000000000000e+00  4.1704764084793595e-04 -8.5586848248744157e-09 0.0000000000000000e+00  4.1704764086636251e-04 -8.5586603631050001e-09 0.0000000000000000e+00  4.1704764085435725e-04 -8.5586505357880885e-09 0.0000000000000000e+00  4.1704764081715859e-04 -8.5587256689386576e-09 0.0000000000000000e+00  4.1704764083184108e-04 -8.5586787413076057e-09 0.0000000000000000e+00  4.1704764086194590e-04 -8.5586722055200695e-09 0.0000000000000000e+00  4.1704764085794259e-04 -8.5586490244102600e-09 0.0000000000000000e+00  4.1704764085797469e-04 -8.5586471431026503e-09 0.0000000000000000e+00  4.1704764086006926e-04 -8.5586523193006622e-09 0.0000000000000000e+00  4.1704764085824454e-04 -8.5586588680986245e-09 0.0000000000000000e+00  4.1704764086703569e-04 -8.5586590607613505e-09 0.0000000000000000e+00  4.1704764085806457e-04 -8.5586690188330442e-09 0.0000000000000000e+00  4.1704764084913660e-04 -8.5586575587076608e-09 0.0000000000000000e+00  4.1704764086304994e-04 -8.5586636842330949e-09 0.0000000000000000e+00  4.1704764089935684e-04 -8.5586047442924931e-09 0.0000000000000000e+00  4.1704764089211079e-04 -8.5586470600527639e-09 0.0000000000000000e+00  4.1704764085261396e-04 -8.5586684514700473e-09 0.0000000000000000e+00  4.1704764086365992e-04 -8.5586735643506523e-09 0.0000000000000000e+00  4.1704764085032716e-04 -8.5586575098101428e-09 0.0000000000000000e+00  4.1704764087279183e-04 -8.5586626934891497e-09 0.0000000000000000e+00  4.1704764084367026e-04 -8.5586685335441517e-09 0.0000000000000000e+00  4.1704764086229024e-04 -8.5586649652179617e-09 0.0000000000000000e+00  4.1704764085654235e-04 3.1620509526654060e-09 0.0000000000000000e+00  7.5927591551139305e-04 -1.1989643748850677e-08 0.0000000000000000e+00  7.5927591551144564e-04 -1.1989627706344812e-08 0.0000000000000000e+00  7.5927591550952302e-04 -1.1989651360925710e-08 0.0000000000000000e+00  7.5927591550374726e-04 -1.1989647172544297e-08 0.0000000000000000e+00  7.5927591550678823e-04 -1.1989637494196764e-08 0.0000000000000000e+00  7.5927591550250520e-04 -1.1989638253246705e-08 0.0000000000000000e+00  7.5927591551778638e-04 -1.1989627703634306e-08 0.0000000000000000e+00  7.5927591549545127e-04 -1.1989653573131823e-08 0.0000000000000000e+00  7.5927591550515119e-04 -1.1989627539811358e-08 0.0000000000000000e+00  7.5927591550716835e-04 -1.1989655867845721e-08 0.0000000000000000e+00  7.5927591550737955e-04 -1.1989641778530069e-08 0.0000000000000000e+00  7.5927591547835015e-04 -1.1989687703382532e-08 0.0000000000000000e+00  7.5927591546601843e-04 -1.1989665888367460e-08 0.0000000000000000e+00  7.5927591550852263e-04 -1.1989660573066309e-08 0.0000000000000000e+00  7.5927591549760926e-04 -1.1989670992466027e-08 0.0000000000000000e+00  7.5927591549913192e-04 -1.1989666878135623e-08 0.0000000000000000e+00  7.5927591549922885e-04 -1.1989634137940519e-08 0.0000000000000000e+00  7.5927591550630749e-04 -1.1989640062346450e-08 0.0000000000000000e+00  7.5927591549704364e-04 -1.1989649455982493e-08 0.0000000000000000e+00  7.5927591550923083e-04 -1.1989629983277794e-08 0.0000000000000000e+00  7.5927591551257017e-04 -1.1989641093639557e-08 0.0000000000000000e+00  7.5927591550434986e-04 -1.1989652009929130e-08 0.0000000000000000e+00  7.5927591554158320e-04 -1.1989591324639871e-08 0.0000000000000000e+00  7.5927591554120113e-04 -1.1989650903283973e-08 0.0000000000000000e+00  7.5927591550238669e-04 -1.1989652829911233e-08 0.0000000000000000e+00  7.5927591550206685e-04 -1.1989661308480642e-08 0.0000000000000000e+00  7.5927591550426735e-04 -1.1989655165933234e-08 0.0000000000000000e+00  7.5927591548827146e-04 -1.1989652384195720e-08 0.0000000000000000e+00  7.5927591551013635e-04 -1.1989628282706687e-08 0.0000000000000000e+00  7.5927591550804872e-04 -1.1989634192150628e-08 0.0000000000000000e+00  7.5927591551139349e-04 5.0097052559028281e-09 0.0000000000000000e+00  9.7021851737783145e-04 -1.3280154472850372e-08 0.0000000000000000e+00  9.7021851736574282e-04 -1.3280155108626526e-08 0.0000000000000000e+00  9.7021851737891913e-04 -1.3280133559457827e-08 0.0000000000000000e+00  9.7021851738699231e-04 -1.3280156628244291e-08 0.0000000000000000e+00  9.7021851734930935e-04 -1.3280173712234764e-08 0.0000000000000000e+00  9.7021851736743114e-04 -1.3280168543843007e-08 0.0000000000000000e+00  9.7021851736485507e-04 -1.3280167626824810e-08 0.0000000000000000e+00  9.7021851737638513e-04 -1.3280150531558635e-08 0.0000000000000000e+00  9.7021851736837483e-04 -1.3280169051032784e-08 0.0000000000000000e+00  9.7021851736474687e-04 -1.3280174242843307e-08 0.0000000000000000e+00  9.7021851735594662e-04 -1.3280195963966471e-08 0.0000000000000000e+00  9.7021851735315566e-04 -1.3280157640889120e-08 0.0000000000000000e+00  9.7021851738283678e-04 -1.3280168001308240e-08 0.0000000000000000e+00  9.7021851735497777e-04 -1.3280164111190845e-08 0.0000000000000000e+00  9.7021851736447950e-04 -1.3280169943764852e-08 0.0000000000000000e+00  9.7021851736616089e-04 -1.3280173651085761e-08 0.0000000000000000e+00  9.7021851736445977e-04 -1.3280182465215742e-08 0.0000000000000000e+00  9.7021851736868469e-04 -1.3280182900197654e-08 0.0000000000000000e+00  9.7021851735809507e-04 -1.3280159217102239e-08 0.0000000000000000e+00  9.7021851737384311e-04 -1.3280146691531380e-08 0.0000000000000000e+00  9.7021851737326610e-04 -1.3280166977604549e-08 0.0000000000000000e+00  9.7021851736341330e-04 -1.3280160051721071e-08 0.0000000000000000e+00  9.7021851740223728e-04 -1.3280153722365629e-08 0.0000000000000000e+00  9.7021851736953297e-04 -1.3280147830160502e-08 0.0000000000000000e+00  9.7021851737931768e-04 -1.3280167408683333e-08 0.0000000000000000e+00  9.7021851735665634e-04 -1.3280157543961446e-08 0.0000000000000000e+00  9.7021851736576081e-04 -1.3280171830059792e-08 0.0000000000000000e+00  9.7021851735944837e-04 -1.3280160666680543e-08 0.0000000000000000e+00  9.7021851736712452e-04 -1.3280172137756369e-08 0.0000000000000000e+00  9.7021851737468770e-04 -1.3280140702615420e-08 0.0000000000000000e+00  9.7021851737783189e-04 6.0094073883126884e-09 0.0000000000000000e+00  1.0134015988577890e-03 -1.2062681002396151e-08 0.0000000000000000e+00  1.0134015988630830e-03 -1.2062674459344461e-08 0.0000000000000000e+00  1.0134015988637370e-03 -1.2062669611659707e-08 0.0000000000000000e+00  1.0134015988698866e-03 -1.2062671221374673e-08 0.0000000000000000e+00  1.0134015988526139e-03 -1.2062686610215048e-08 0.0000000000000000e+00  1.0134015988523257e-03 -1.2062662623651445e-08 0.0000000000000000e+00  1.0134015988602781e-03 -1.2062664905788598e-08 0.0000000000000000e+00  1.0134015988511754e-03 -1.2062676957454686e-08 0.0000000000000000e+00  1.0134015988627662e-03 -1.2062671675113282e-08 0.0000000000000000e+00  1.0134015988613305e-03 -1.2062668070466319e-08 0.0000000000000000e+00  1.0134015988565756e-03 -1.2062664941025168e-08 0.0000000000000000e+00  1.0134015988600877e-03 -1.2062664609367724e-08 0.0000000000000000e+00  1.0134015988708649e-03 -1.2062657865196530e-08 0.0000000000000000e+00  1.0134015988600160e-03 -1.2062674704482572e-08 0.0000000000000000e+00  1.0134015988693169e-03 -1.2062669358606920e-08 0.0000000000000000e+00  1.0134015988582609e-03 -1.2062668026014030e-08 0.0000000000000000e+00  1.0134015988608226e-03 -1.2062652440607800e-08 0.0000000000000000e+00  1.0134015988528670e-03 -1.2062682462057536e-08 0.0000000000000000e+00  1.0134015988610646e-03 -1.2062675852110571e-08 0.0000000000000000e+00  1.0134015988536712e-03 -1.2062661197058226e-08 0.0000000000000000e+00  1.0134015988732077e-03 -1.2062671878401189e-08 0.0000000000000000e+00  1.0134015988534318e-03 -1.2062670201248848e-08 0.0000000000000000e+00  1.0134015988576077e-03 -1.2062662310533857e-08 0.0000000000000000e+00  1.0134015988666717e-03 -1.2062669123443469e-08 0.0000000000000000e+00  1.0134015988653429e-03 -1.2062662743347365e-08 0.0000000000000000e+00  1.0134015988562698e-03 -1.2062665942936396e-08 0.0000000000000000e+00  1.0134015988607879e-03 -1.2062668820517382e-08 0.0000000000000000e+00  1.0134015988459599e-03 -1.2062670542013591e-08 0.0000000000000000e+00  1.0134015988774261e-03 -1.2062670804498937e-08 0.0000000000000000e+00  1.0134015988508280e-03 -1.2062678409851917e-08 0.0000000000000000e+00  1.0134015988577892e-03 5.9232759518847622e-09 0.0000000000000000e+00  8.8135839701044259e-04 -8.5754140790325964e-09 0.0000000000000000e+00  8.8135839700931925e-04 -8.5754145244228488e-09 0.0000000000000000e+00  8.8135839701409982e-04 -8.5754373044862747e-09 0.0000000000000000e+00  8.8135839701837320e-04 -8.5754337726976979e-09 0.0000000000000000e+00  8.8135839699578732e-04 -8.5754163124890717e-09 0.0000000000000000e+00  8.8135839701523682e-04 -8.5754208459720357e-09 0.0000000000000000e+00  8.8135839701285646e-04 -8.5754297998556772e-09 0.0000000000000000e+00  8.8135839699636531e-04 -8.5754126512467554e-09 0.0000000000000000e+00  8.8135839700697737e-04 -8.5754199644072493e-09 0.0000000000000000e+00  8.8135839700674622e-04 -8.5754161434619530e-09 0.0000000000000000e+00  8.8135839702311203e-04 -8.5754093603679013e-09 0.0000000000000000e+00  8.8135839700506462e-04 -8.5754386317665743e-09 0.0000000000000000e+00  8.8135839701050558e-04 -8.5754375653453174e-09 0.0000000000000000e+00  8.8135839700711799e-04 -8.5754414331281476e-09 0.0000000000000000e+00  8.8135839700844278e-04 -8.5754458361815902e-09 0.0000000000000000e+00  8.8135839698610724e-04 -8.5754262402031045e-09 0.0000000000000000e+00  8.8135839702068277e-04 -8.5754347611648185e-09 0.0000000000000000e+00  8.8135839699504659e-04 -8.5754263500327846e-09 0.0000000000000000e+00  8.8135839700361005e-04 -8.5754032517560211e-09 0.0000000000000000e+00  8.8135839701892137e-04 -8.5754194813951815e-09 0.0000000000000000e+00  8.8135839701797053e-04 -8.5754260338794311e-09 0.0000000000000000e+00  8.8135839701710946e-04 -8.5754252813347032e-09 0.0000000000000000e+00  8.8135839699954820e-04 -8.5754217336083544e-09 0.0000000000000000e+00  8.8135839700936164e-04 -8.5754171597930695e-09 0.0000000000000000e+00  8.8135839701527564e-04 -8.5754265982066619e-09 0.0000000000000000e+00  8.8135839701107576e-04 -8.5754287090398715e-09 0.0000000000000000e+00  8.8135839700676801e-04 -8.5754160152008360e-09 0.0000000000000000e+00  8.8135839700968007e-04 -8.5754332970582048e-09 0.0000000000000000e+00  8.8135839701526891e-04 -8.5754103903599652e-09 0.0000000000000000e+00  8.8135839699967646e-04 -8.5754284219431362e-09 0.0000000000000000e+00  8.8135839701044280e-04 4.7432146544274896e-09 0.0000000000000000e+00  5.9692031489990880e-04 -3.6028012047242125e-09 0.0000000000000000e+00  5.9692031490979954e-04 -3.6028030387606075e-09 0.0000000000000000e+00  5.9692031492019661e-04 -3.6027990897168245e-09 0.0000000000000000e+00  5.9692031491237691e-04 -3.6028019396506551e-09 0.0000000000000000e+00  5.9692031489736288e-04 -3.6028035636228792e-09 0.0000000000000000e+00  5.9692031492643272e-04 -3.6027837486355546e-09 0.0000000000000000e+00  5.9692031490712156e-04 -3.6027801195398328e-09 0.0000000000000000e+00  5.9692031491665810e-04 -3.6027936900105348e-09 0.0000000000000000e+00  5.9692031490252628e-04 -3.6027983263300749e-09 0.0000000000000000e+00  5.9692031490927360e-04 -3.6027907641825521e-09 0.0000000000000000e+00  5.9692031491128978e-04 -3.6027988616548975e-09 0.0000000000000000e+00  5.9692031489869460e-04 -3.6027976417106131e-09 0.0000000000000000e+00  5.9692031492531513e-04 -3.6027874935240685e-09 0.0000000000000000e+00  5.9692031490687198e-04 -3.6027790073652442e-09 0.0000000000000000e+00  5.9692031492159675e-04 -3.6027868239750169e-09 0.0000000000000000e+00  5.9692031490847204e-04 -3.6027908284215308e-09 0.0000000000000000e+00  5.9692031490111768e-04 -3.6027749721273886e-09 0.0000000000000000e+00  5.9692031492645722e-04 -3.6027984582774793e-09 0.0000000000000000e+00  5.9692031491017988e-04 -3.6028017948012449e-09 0.0000000000000000e+00  5.9692031491050297e-04 -3.6027955703965726e-09 0.0000000000000000e+00  5.9692031491393404e-04 -3.6028033381088273e-09 0.0000000000000000e+00  5.9692031491513729e-04 -3.6027797681499087e-09 0.0000000000000000e+00  5.9692031490974175e-04 -3.6028034640389096e-09 0.0000000000000000e+00  5.9692031491504166e-04 -3.6027835890952049e-09 0.0000000000000000e+00  5.9692031491265251e-04 -3.6028063763685753e-09 0.0000000000000000e+00  5.9692031490851140e-04 -3.6027976330369957e-09 0.0000000000000000e+00  5.9692031490466292e-04 -3.6028020940952546e-09 0.0000000000000000e+00  5.9692031490746948e-04 -3.6027876336571993e-09 0.0000000000000000e+00  5.9692031491829036e-04 -3.6028023349507672e-09 0.0000000000000000e+00  5.9692031490468471e-04 -3.6027957833338793e-09 0.0000000000000000e+00  5.9692031489990891e-04 2.7069533518257397e-09 0.0000000000000000e+00  2.0926920833346009e-04 1.7804694279387407e-09 0.0000000000000000e+00  2.0926920832776828e-04 1.7804803410299179e-09 0.0000000000000000e+00  2.0926920833665391e-04 1.7804814132787615e-09 0.0000000000000000e+00  2.0926920833992568e-04 1.7804757961221735e-09 0.0000000000000000e+00  2.0926920832459118e-04 1.7804725868972955e-09 0.0000000000000000e+00  2.0926920832016076e-04 1.7804624648671283e-09 0.0000000000000000e+00  2.0926920833657151e-04 1.7804741789126605e-09 0.0000000000000000e+00  2.0926920833255075e-04 1.7804967073192096e-09 0.0000000000000000e+00  2.0926920833694060e-04 1.7804758936461589e-09 0.0000000000000000e+00  2.0926920834133211e-04 1.7804716178780513e-09 0.0000000000000000e+00  2.0926920831910404e-04 1.7804725681677029e-09 0.0000000000000000e+00  2.0926920833399485e-04 1.7804772320124257e-09 0.0000000000000000e+00  2.0926920833263583e-04 1.7804539137781464e-09 0.0000000000000000e+00  2.0926920832764706e-04 1.7804647145595312e-09 0.0000000000000000e+00  2.0926920833486048e-04 1.7804515351741053e-09 0.0000000000000000e+00  2.0926920832374784e-04 1.7804566830066778e-09 0.0000000000000000e+00  2.0926920832400254e-04 1.7804657573858382e-09 0.0000000000000000e+00  2.0926920833844534e-04 1.7804727668477511e-09 0.0000000000000000e+00  2.0926920833275859e-04 1.7804639244471980e-09 0.0000000000000000e+00  2.0926920833279827e-04 1.7804730581186647e-09 0.0000000000000000e+00  2.0926920833729820e-04 1.7804567609608140e-09 0.0000000000000000e+00  2.0926920832589163e-04 1.7804570826300461e-09 0.0000000000000000e+00  2.0926920832581224e-04 1.7804868843662117e-09 0.0000000000000000e+00  2.0926920834079456e-04 1.7804710095864224e-09 0.0000000000000000e+00  2.0926920833604551e-04 1.7804703322040101e-09 0.0000000000000000e+00  2.0926920833419123e-04 1.7804911015874021e-09 0.0000000000000000e+00  2.0926920833766726e-04 1.7804823077997639e-09 0.0000000000000000e+00  2.0926920832613769e-04 1.7804686584533538e-09 0.0000000000000000e+00  2.0926920832943583e-04 1.7804438654059644e-09 0.0000000000000000e+00  2.0926920831848772e-04 1.7804650586988532e-09 0.0000000000000000e+00  2.0926920833346012e-04 2.3426375343132171e-10 0.0000000000000000e+00  -2.1456655575827107e-04 6.5370323282611977e-09 0.0000000000000000e+00  -2.1456655574574355e-04 6.5370427118280339e-09 0.0000000000000000e+00  -2.1456655576084876e-04 6.5370402463522936e-09 0.0000000000000000e+00  -2.1456655576586483e-04 6.5370470284705634e-09 0.0000000000000000e+00  -2.1456655574650363e-04 6.5370172044540431e-09 0.0000000000000000e+00  -2.1456655576611094e-04 6.5370487395584320e-09 0.0000000000000000e+00  -2.1456655576078453e-04 6.5370404082778881e-09 0.0000000000000000e+00  -2.1456655576752653e-04 6.5370501705968795e-09 0.0000000000000000e+00  -2.1456655575693946e-04 6.5370392835807645e-09 0.0000000000000000e+00  -2.1456655576163497e-04 6.5370380059027143e-09 0.0000000000000000e+00  -2.1456655575249650e-04 6.5370385104904054e-09 0.0000000000000000e+00  -2.1456655575809863e-04 6.5370459032313387e-09 0.0000000000000000e+00  -2.1456655574587132e-04 6.5370501859383402e-09 0.0000000000000000e+00  -2.1456655576210422e-04 6.5370271835050488e-09 0.0000000000000000e+00  -2.1456655575525195e-04 6.5370246379067680e-09 0.0000000000000000e+00  -2.1456655576594365e-04 6.5370252988364123e-09 0.0000000000000000e+00  -2.1456655576455885e-04 6.5370415337881634e-09 0.0000000000000000e+00  -2.1456655575555564e-04 6.5370393709674596e-09 0.0000000000000000e+00  -2.1456655575086787e-04 6.5370359279208305e-09 0.0000000000000000e+00  -2.1456655576859767e-04 6.5370368254233889e-09 0.0000000000000000e+00  -2.1456655576175776e-04 6.5370254828255210e-09 0.0000000000000000e+00  -2.1456655576729158e-04 6.5370323509210231e-09 0.0000000000000000e+00  -2.1456655575746226e-04 6.5370407528915486e-09 0.0000000000000000e+00  -2.1456655575924225e-04 6.5370595077459889e-09 0.0000000000000000e+00  -2.1456655574056746e-04 6.5370489884370407e-09 0.0000000000000000e+00  -2.1456655575992427e-04 6.5370475424908134e-09 0.0000000000000000e+00  -2.1456655574682889e-04 6.5370366113476699e-09 0.0000000000000000e+00  -2.1456655577228596e-04 6.5370350060237233e-09 0.0000000000000000e+00  -2.1456655575950137e-04 6.5370441609726576e-09 0.0000000000000000e+00  -2.1456655575946538e-04 6.5370582381452449e-09 0.0000000000000000e+00  -2.1456655575827124e-04 -2.1900175437344608e-09 0.0000000000000000e+00  -6.0130189197378405e-04 9.9169217016850317e-09 0.0000000000000000e+00  -6.0130189196857587e-04 9.9169137517726019e-09 0.00