<?xml version="1.0"?>
<VTKFile type="UnstructuredGrid"  version="0.1"  >
<UnstructuredGrid>
<Piece  NumberOfPoints="961" NumberOfCells="1800">
<Points>
<DataArray  type="Float64"  NumberOfComponents="3"  format="ascii">0 0 0  0.03333333333333333 0 0  0.06666666666666667 0 0  0.1 0 0  0.1333333333333333 0 0  0.1666666666666667 0 0  0.2 0 0  0.2333333333333333 0 0  0.2666666666666667 0 0  0.3 0 0  0.3333333333333333 0 0  0.3666666666666666 0 0  0.4 0 0  0.4333333333333333 0 0  0.4666666666666667 0 0  0.5 0 0  0.5333333333333333 0 0  0.5666666666666667 0 0  0.6 0 0  0.6333333333333333 0 0  0.6666666666666666 0 0  0.7 0 0  0.7333333333333333 0 0  0.7666666666666667 0 0  0.8 0 0  0.8333333333333334 0 0  0.8666666666666667 0 0  0.9 0 0  0.9333333333333333 0 0  0.9666666666666667 0 0  1 0 0  0 0.03333333333333333 0  0.03333333333333333 0.03333333333333333 0  0.06666666666666667 0.03333333333333333 0  0.1 0.03333333333333333 0  0.1333333333333333 0.03333333333333333 0  0.1666666666666667 0.03333333333333333 0  0.2 0.03333333333333333 0  0.2333333333333333 0.03333333333333333 0  0.2666666666666667 0.03333333333333333 0  0.3 0.03333333333333333 0  0.3333333333333333 0.03333333333333333 0  0.3666666666666666 0.03333333333333333 0  0.4 0.03333333333333333 0  0.4333333333333333 0.03333333333333333 0  0.4666666666666667 0.03333333333333333 0  0.5 0.03333333333333333 0  0.5333333333333333 0.03333333333333333 0  0.5666666666666667 0.03333333333333333 0  0.6 0.03333333333333333 0  0.6333333333333333 0.03333333333333333 0  0.6666666666666666 0.03333333333333333 0  0.7 0.03333333333333333 0  0.7333333333333333 0.03333333333333333 0  0.7666666666666667 0.03333333333333333 0  0.8 0.03333333333333333 0  0.8333333333333334 0.03333333333333333 0  0.8666666666666667 0.03333333333333333 0  0.9 0.03333333333333333 0  0.9333333333333333 0.03333333333333333 0  0.9666666666666667 0.03333333333333333 0  1 0.03333333333333333 0  0 0.06666666666666667 0  0.03333333333333333 0.06666666666666667 0  0.06666666666666667 0.06666666666666667 0  0.1 0.06666666666666667 0  0.1333333333333333 0.06666666666666667 0  0.1666666666666667 0.06666666666666667 0  0.2 0.06666666666666667 0  0.2333333333333333 0.06666666666666667 0  0.2666666666666667 0.06666666666666667 0  0.3 0.06666666666666667 0  0.3333333333333333 0.06666666666666667 0  0.3666666666666666 0.06666666666666667 0  0.4 0.06666666666666667 0  0.4333333333333333 0.06666666666666667 0  0.4666666666666667 0.06666666666666667 0  0.5 0.06666666666666667 0  0.5333333333333333 0.06666666666666667 0  0.5666666666666667 0.06666666666666667 0  0.6 0.06666666666666667 0  0.6333333333333333 0.06666666666666667 0  0.6666666666666666 0.06666666666666667 0  0.7 0.06666666666666667 0  0.7333333333333333 0.06666666666666667 0  0.7666666666666667 0.06666666666666667 0  0.8 0.06666666666666667 0  0.8333333333333334 0.06666666666666667 0  0.8666666666666667 0.06666666666666667 0  0.9 0.06666666666666667 0  0.9333333333333333 0.06666666666666667 0  0.9666666666666667 0.06666666666666667 0  1 0.06666666666666667 0  0 0.1 0  0.03333333333333333 0.1 0  0.06666666666666667 0.1 0  0.1 0.1 0  0.1333333333333333 0.1 0  0.1666666666666667 0.1 0  0.2 0.1 0  0.2333333333333333 0.1 0  0.2666666666666667 0.1 0  0.3 0.1 0  0.3333333333333333 0.1 0  0.3666666666666666 0.1 0  0.4 0.1 0  0.4333333333333333 0.1 0  0.4666666666666667 0.1 0  0.5 0.1 0  0.5333333333333333 0.1 0  0.5666666666666667 0.1 0  0.6 0.1 0  0.6333333333333333 0.1 0  0.6666666666666666 0.1 0  0.7 0.1 0  0.7333333333333333 0.1 0  0.7666666666666667 0.1 0  0.8 0.1 0  0.8333333333333334 0.1 0  0.8666666666666667 0.1 0  0.9 0.1 0  0.9333333333333333 0.1 0  0.9666666666666667 0.1 0  1 0.1 0  0 0.1333333333333333 0  0.03333333333333333 0.1333333333333333 0  0.06666666666666667 0.1333333333333333 0  0.1 0.1333333333333333 0  0.1333333333333333 0.1333333333333333 0  0.1666666666666667 0.1333333333333333 0  0.2 0.1333333333333333 0  0.2333333333333333 0.1333333333333333 0  0.2666666666666667 0.1333333333333333 0  0.3 0.1333333333333333 0  0.3333333333333333 0.1333333333333333 0  0.3666666666666666 0.1333333333333333 0  0.4 0.1333333333333333 0  0.4333333333333333 0.1333333333333333 0  0.4666666666666667 0.1333333333333333 0  0.5 0.1333333333333333 0  0.5333333333333333 0.1333333333333333 0  0.5666666666666667 0.1333333333333333 0  0.6 0.1333333333333333 0  0.6333333333333333 0.1333333333333333 0  0.6666666666666666 0.1333333333333333 0  0.7 0.1333333333333333 0  0.7333333333333333 0.1333333333333333 0  0.7666666666666667 0.1333333333333333 0  0.8 0.1333333333333333 0  0.8333333333333334 0.1333333333333333 0  0.8666666666666667 0.1333333333333333 0  0.9 0.1333333333333333 0  0.9333333333333333 0.1333333333333333 0  0.9666666666666667 0.1333333333333333 0  1 0.1333333333333333 0  0 0.1666666666666667 0  0.03333333333333333 0.1666666666666667 0  0.06666666666666667 0.1666666666666667 0  0.1 0.1666666666666667 0  0.1333333333333333 0.1666666666666667 0  0.1666666666666667 0.1666666666666667 0  0.2 0.1666666666666667 0  0.2333333333333333 0.1666666666666667 0  0.2666666666666667 0.1666666666666667 0  0.3 0.1666666666666667 0  0.3333333333333333 0.1666666666666667 0  0.3666666666666666 0.1666666666666667 0  0.4 0.1666666666666667 0  0.4333333333333333 0.1666666666666667 0  0.4666666666666667 0.1666666666666667 0  0.5 0.1666666666666667 0  0.5333333333333333 0.1666666666666667 0  0.5666666666666667 0.1666666666666667 0  0.6 0.1666666666666667 0  0.6333333333333333 0.1666666666666667 0  0.6666666666666666 0.1666666666666667 0  0.7 0.1666666666666667 0  0.7333333333333333 0.1666666666666667 0  0.7666666666666667 0.1666666666666667 0  0.8 0.1666666666666667 0  0.8333333333333334 0.1666666666666667 0  0.8666666666666667 0.1666666666666667 0  0.9 0.1666666666666667 0  0.9333333333333333 0.1666666666666667 0  0.9666666666666667 0.1666666666666667 0  1 0.1666666666666667 0  0 0.2 0  0.03333333333333333 0.2 0  0.06666666666666667 0.2 0  0.1 0.2 0  0.1333333333333333 0.2 0  0.1666666666666667 0.2 0  0.2 0.2 0  0.2333333333333333 0.2 0  0.2666666666666667 0.2 0  0.3 0.2 0  0.3333333333333333 0.2 0  0.3666666666666666 0.2 0  0.4 0.2 0  0.4333333333333333 0.2 0  0.4666666666666667 0.2 0  0.5 0.2 0  0.5333333333333333 0.2 0  0.5666666666666667 0.2 0  0.6 0.2 0  0.6333333333333333 0.2 0  0.6666666666666666 0.2 0  0.7 0.2 0  0.7333333333333333 0.2 0  0.7666666666666667 0.2 0  0.8 0.2 0  0.8333333333333334 0.2 0  0.8666666666666667 0.2 0  0.9 0.2 0  0.9333333333333333 0.2 0  0.9666666666666667 0.2 0  1 0.2 0  0 0.2333333333333333 0  0.03333333333333333 0.2333333333333333 0  0.06666666666666667 0.2333333333333333 0  0.1 0.2333333333333333 0  0.1333333333333333 0.2333333333333333 0  0.1666666666666667 0.2333333333333333 0  0.2 0.2333333333333333 0  0.2333333333333333 0.2333333333333333 0  0.2666666666666667 0.2333333333333333 0  0.3 0.2333333333333333 0  0.3333333333333333 0.2333333333333333 0  0.3666666666666666 0.2333333333333333 0  0.4 0.2333333333333333 0  0.4333333333333333 0.2333333333333333 0  0.4666666666666667 0.2333333333333333 0  0.5 0.2333333333333333 0  0.5333333333333333 0.2333333333333333 0  0.5666666666666667 0.2333333333333333 0  0.6 0.2333333333333333 0  0.6333333333333333 0.2333333333333333 0  0.6666666666666666 0.2333333333333333 0  0.7 0.2333333333333333 0  0.7333333333333333 0.2333333333333333 0  0.7666666666666667 0.2333333333333333 0  0.8 0.2333333333333333 0  0.8333333333333334 0.2333333333333333 0  0.8666666666666667 0.2333333333333333 0  0.9 0.2333333333333333 0  0.9333333333333333 0.2333333333333333 0  0.9666666666666667 0.2333333333333333 0  1 0.2333333333333333 0  0 0.2666666666666667 0  0.03333333333333333 0.2666666666666667 0  0.06666666666666667 0.2666666666666667 0  0.1 0.2666666666666667 0  0.1333333333333333 0.2666666666666667 0  0.1666666666666667 0.2666666666666667 0  0.2 0.2666666666666667 0  0.2333333333333333 0.2666666666666667 0  0.2666666666666667 0.2666666666666667 0  0.3 0.2666666666666667 0  0.3333333333333333 0.2666666666666667 0  0.3666666666666666 0.2666666666666667 0  0.4 0.2666666666666667 0  0.4333333333333333 0.2666666666666667 0  0.4666666666666667 0.2666666666666667 0  0.5 0.2666666666666667 0  0.5333333333333333 0.2666666666666667 0  0.5666666666666667 0.2666666666666667 0  0.6 0.2666666666666667 0  0.6333333333333333 0.2666666666666667 0  0.6666666666666666 0.2666666666666667 0  0.7 0.2666666666666667 0  0.7333333333333333 0.2666666666666667 0  0.7666666666666667 0.2666666666666667 0  0.8 0.2666666666666667 0  0.8333333333333334 0.2666666666666667 0  0.8666666666666667 0.2666666666666667 0  0.9 0.2666666666666667 0  0.9333333333333333 0.2666666666666667 0  0.9666666666666667 0.2666666666666667 0  1 0.2666666666666667 0  0 0.3 0  0.03333333333333333 0.3 0  0.06666666666666667 0.3 0  0.1 0.3 0  0.1333333333333333 0.3 0  0.1666666666666667 0.3 0  0.2 0.3 0  0.2333333333333333 0.3 0  0.2666666666666667 0.3 0  0.3 0.3 0  0.3333333333333333 0.3 0  0.3666666666666666 0.3 0  0.4 0.3 0  0.4333333333333333 0.3 0  0.4666666666666667 0.3 0  0.5 0.3 0  0.5333333333333333 0.3 0  0.5666666666666667 0.3 0  0.6 0.3 0  0.6333333333333333 0.3 0  0.6666666666666666 0.3 0  0.7 0.3 0  0.7333333333333333 0.3 0  0.7666666666666667 0.3 0  0.8 0.3 0  0.8333333333333334 0.3 0  0.8666666666666667 0.3 0  0.9 0.3 0  0.9333333333333333 0.3 0  0.9666666666666667 0.3 0  1 0.3 0  0 0.3333333333333333 0  0.03333333333333333 0.3333333333333333 0  0.06666666666666667 0.3333333333333333 0  0.1 0.3333333333333333 0  0.1333333333333333 0.3333333333333333 0  0.1666666666666667 0.3333333333333333 0  0.2 0.3333333333333333 0  0.2333333333333333 0.3333333333333333 0  0.2666666666666667 0.3333333333333333 0  0.3 0.3333333333333333 0  0.3333333333333333 0.3333333333333333 0  0.3666666666666666 0.3333333333333333 0  0.4 0.3333333333333333 0  0.4333333333333333 0.3333333333333333 0  0.4666666666666667 0.3333333333333333 0  0.5 0.3333333333333333 0  0.5333333333333333 0.33333333333333
[...]
<PointData  Vectors="u_f"> 
<DataArray  type="Float64"  Name="u_f"  NumberOfComponents="3" format="ascii">2.7085790911337442e-06 -1.3596273575316314e-09 0.0000000000000000e+00  2.7085790803307538e-06 -1.3596234598790315e-09 0.0000000000000000e+00  2.7085790921898656e-06 -1.3596162392551930e-09 0.0000000000000000e+00  2.7085790825760281e-06 -1.3596028975511494e-09 0.0000000000000000e+00  2.7085790879686870e-06 -1.3596148853035200e-09 0.0000000000000000e+00  2.7085791039368166e-06 -1.3596127326201066e-09 0.0000000000000000e+00  2.7085790786633051e-06 -1.3596277668721617e-09 0.0000000000000000e+00  2.7085790918200984e-06 -1.3596093983189554e-09 0.0000000000000000e+00  2.7085790856415013e-06 -1.3596164607576969e-09 0.0000000000000000e+00  2.7085790850207413e-06 -1.3596410598413176e-09 0.0000000000000000e+00  2.7085790878698620e-06 -1.3596009076064820e-09 0.0000000000000000e+00  2.7085790564920212e-06 -1.3597373170449144e-09 0.0000000000000000e+00  2.7085790322861234e-06 -1.3596461487068445e-09 0.0000000000000000e+00  2.7085790895301550e-06 -1.3596099739218888e-09 0.0000000000000000e+00  2.7085790970843879e-06 -1.3596263127944180e-09 0.0000000000000000e+00  2.7085790839281366e-06 -1.3596050982105090e-09 0.0000000000000000e+00  2.7085790944606728e-06 -1.3596107933618908e-09 0.0000000000000000e+00  2.7085790834198084e-06 -1.3596207227564369e-09 0.0000000000000000e+00  2.7085791160356997e-06 -1.3596090054582982e-09 0.0000000000000000e+00  2.7085790992720910e-06 -1.3596137262913977e-09 0.0000000000000000e+00  2.7085790921343544e-06 -1.3596120491390570e-09 0.0000000000000000e+00  2.7085790793880400e-06 -1.3596478551326438e-09 0.0000000000000000e+00  2.7085791139272518e-06 -1.3594700749245542e-09 0.0000000000000000e+00  2.7085791743452310e-06 -1.3596118038925256e-09 0.0000000000000000e+00  2.7085790910405571e-06 -1.3596335319003734e-09 0.0000000000000000e+00  2.7085790863982744e-06 -1.3596427263142669e-09 0.0000000000000000e+00  2.7085791002332904e-06 -1.3596489005203785e-09 0.0000000000000000e+00  2.7085790819828068e-06 -1.3596461445868763e-09 0.0000000000000000e+00  2.7085790863850471e-06 -1.3596389520438741e-09 0.0000000000000000e+00  2.7085790814781107e-06 -1.3596305450860185e-09 0.0000000000000000e+00  2.7085790911337984e-06 2.6592137957856864e-10 0.0000000000000000e+00  4.1704947911485972e-04 -4.7111768314636593e-09 0.0000000000000000e+00  4.1704947911759560e-04 -4.7111855328366148e-09 0.0000000000000000e+00  4.1704947912546962e-04 -4.7111893106306646e-09 0.0000000000000000e+00  4.1704947912527403e-04 -4.7111744594461463e-09 0.0000000000000000e+00  4.1704947912210566e-04 -4.7111666800787183e-09 0.0000000000000000e+00  4.1704947910473696e-04 -4.7111774210528007e-09 0.0000000000000000e+00  4.1704947912518512e-04 -4.7111674641737294e-09 0.0000000000000000e+00  4.1704947912503051e-04 -4.7111888675172367e-09 0.0000000000000000e+00  4.1704947911900495e-04 -4.7111958040258958e-09 0.0000000000000000e+00  4.1704947911551252e-04 -4.7111761926517393e-09 0.0000000000000000e+00  4.1704947913272900e-04 -4.7111478258029388e-09 0.0000000000000000e+00  4.1704947906810827e-04 -4.7112670864156089e-09 0.0000000000000000e+00  4.1704947906359875e-04 -4.7112227813611920e-09 0.0000000000000000e+00  4.1704947911107141e-04 -4.7111939119846846e-09 0.0000000000000000e+00  4.1704947912960086e-04 -4.7111674939892892e-09 0.0000000000000000e+00  4.1704947912261882e-04 -4.7111939367044942e-09 0.0000000000000000e+00  4.1704947912952367e-04 -4.7111939954682519e-09 0.0000000000000000e+00  4.1704947912459987e-04 -4.7111851050104375e-09 0.0000000000000000e+00  4.1704947910450071e-04 -4.7112098036780278e-09 0.0000000000000000e+00  4.1704947910216675e-04 -4.7112082931675611e-09 0.0000000000000000e+00  4.1704947912195550e-04 -4.7112035711418393e-09 0.0000000000000000e+00  4.1704947911435177e-04 -4.7111921234847809e-09 0.0000000000000000e+00  4.1704947916939910e-04 -4.7111274027950359e-09 0.0000000000000000e+00  4.1704947917797883e-04 -4.7111578469751988e-09 0.0000000000000000e+00  4.1704947911680923e-04 -4.7112088685536541e-09 0.0000000000000000e+00  4.1704947910688585e-04 -4.7111840970276778e-09 0.0000000000000000e+00  4.1704947912619018e-04 -4.7111960450440388e-09 0.0000000000000000e+00  4.1704947910491163e-04 -4.7112031610965777e-09 0.0000000000000000e+00  4.1704947911425756e-04 -4.7111996681224386e-09 0.0000000000000000e+00  4.1704947912206435e-04 -4.7111896879330206e-09 0.0000000000000000e+00  4.1704947911485994e-04 5.2452218861908514e-10 0.0000000000000000e+00  7.5927866470253895e-04 -7.5018982911585069e-09 0.0000000000000000e+00  7.5927866469424415e-04 -7.5019061579126300e-09 0.0000000000000000e+00  7.5927866468825014e-04 -7.5018892677775062e-09 0.0000000000000000e+00  7.5927866468535749e-04 -7.5019022631331658e-09 0.0000000000000000e+00  7.5927866468739936e-04 -7.5019076856619113e-09 0.0000000000000000e+00  7.5927866468668737e-04 -7.5019046270191625e-09 0.0000000000000000e+00  7.5927866468797865e-04 -7.5018999349174206e-09 0.0000000000000000e+00  7.5927866468553551e-04 -7.5019040410078883e-09 0.0000000000000000e+00  7.5927866468523139e-04 -7.5019065760894080e-09 0.0000000000000000e+00  7.5927866468305323e-04 -7.5019077541834886e-09 0.0000000000000000e+00  7.5927866469934402e-04 -7.5018931466191985e-09 0.0000000000000000e+00  7.5927866462612286e-04 -7.5019918423019014e-09 0.0000000000000000e+00  7.5927866461991114e-04 -7.5019158243339393e-09 0.0000000000000000e+00  7.5927866469453200e-04 -7.5019097936761953e-09 0.0000000000000000e+00  7.5927866467380119e-04 -7.5018887316395319e-09 0.0000000000000000e+00  7.5927866469119483e-04 -7.5019145747909355e-09 0.0000000000000000e+00  7.5927866469119667e-04 -7.5019038018328890e-09 0.0000000000000000e+00  7.5927866468346870e-04 -7.5019067881593529e-09 0.0000000000000000e+00  7.5927866466835904e-04 -7.5018915864522723e-09 0.0000000000000000e+00  7.5927866470143631e-04 -7.5018924474172174e-09 0.0000000000000000e+00  7.5927866468322161e-04 -7.5019053794554702e-09 0.0000000000000000e+00  7.5927866468789690e-04 -7.5019167869970482e-09 0.0000000000000000e+00  7.5927866475401014e-04 -7.5017850746476877e-09 0.0000000000000000e+00  7.5927866474109458e-04 -7.5018862922930640e-09 0.0000000000000000e+00  7.5927866468495297e-04 -7.5018770079446004e-09 0.0000000000000000e+00  7.5927866468418991e-04 -7.5018934664588394e-09 0.0000000000000000e+00  7.5927866467557462e-04 -7.5019085512889258e-09 0.0000000000000000e+00  7.5927866469136050e-04 -7.5018974224957263e-09 0.0000000000000000e+00  7.5927866468183242e-04 -7.5019017809884597e-09 0.0000000000000000e+00  7.5927866468798928e-04 -7.5018921591278598e-09 0.0000000000000000e+00  7.5927866470253938e-04 8.3041615640463658e-10 0.0000000000000000e+00  9.7022173645133465e-04 -8.8568319527373984e-09 0.0000000000000000e+00  9.7022173643673370e-04 -8.8568409685289839e-09 0.0000000000000000e+00  9.7022173645610037e-04 -8.8568540333820028e-09 0.0000000000000000e+00  9.7022173644390288e-04 -8.8568562163146569e-09 0.0000000000000000e+00  9.7022173643328703e-04 -8.8568498982349170e-09 0.0000000000000000e+00  9.7022173643317947e-04 -8.8568460718686098e-09 0.0000000000000000e+00  9.7022173644485416e-04 -8.8568481969048679e-09 0.0000000000000000e+00  9.7022173643701798e-04 -8.8568285620035242e-09 0.0000000000000000e+00  9.7022173644079643e-04 -8.8568371438974003e-09 0.0000000000000000e+00  9.7022173643244829e-04 -8.8568300614551287e-09 0.0000000000000000e+00  9.7022173645340201e-04 -8.8568849574300473e-09 0.0000000000000000e+00  9.7022173640492690e-04 -8.8568320910815956e-09 0.0000000000000000e+00  9.7022173645776896e-04 -8.8568301297598656e-09 0.0000000000000000e+00  9.7022173644407115e-04 -8.8568547270545528e-09 0.0000000000000000e+00  9.7022173644466421e-04 -8.8568421364315641e-09 0.0000000000000000e+00  9.7022173645461719e-04 -8.8568173123217825e-09 0.0000000000000000e+00  9.7022173644065678e-04 -8.8568454779426598e-09 0.0000000000000000e+00  9.7022173644160893e-04 -8.8568232806379016e-09 0.0000000000000000e+00  9.7022173645083462e-04 -8.8568476838603999e-09 0.0000000000000000e+00  9.7022173643469605e-04 -8.8568446890771590e-09 0.0000000000000000e+00  9.7022173644210658e-04 -8.8568375036356811e-09 0.0000000000000000e+00  9.7022173644432724e-04 -8.8568221994714952e-09 0.0000000000000000e+00  9.7022173647736852e-04 -8.8568780736136138e-09 0.0000000000000000e+00  9.7022173643231601e-04 -8.8568180248594502e-09 0.0000000000000000e+00  9.7022173644773163e-04 -8.8568452825694283e-09 0.0000000000000000e+00  9.7022173644401434e-04 -8.8568430300309947e-09 0.0000000000000000e+00  9.7022173643868440e-04 -8.8568330139544849e-09 0.0000000000000000e+00  9.7022173644581910e-04 -8.8568385258214893e-09 0.0000000000000000e+00  9.7022173644736561e-04 -8.8568196951813172e-09 0.0000000000000000e+00  9.7022173643696659e-04 -8.8568266299552528e-09 0.0000000000000000e+00  9.7022173645133531e-04 1.0135348551041449e-09 0.0000000000000000e+00  1.0134047948804101e-03 -8.2991517300979104e-09 0.0000000000000000e+00  1.0134047948884887e-03 -8.2991735003354328e-09 0.0000000000000000e+00  1.0134047948679938e-03 -8.2991651460155927e-09 0.0000000000000000e+00  1.0134047948796628e-03 -8.2991383911585823e-09 0.0000000000000000e+00  1.0134047948836382e-03 -8.2991466587422486e-09 0.0000000000000000e+00  1.0134047948831158e-03 -8.2991738971534279e-09 0.0000000000000000e+00  1.0134047948908054e-03 -8.2991530046859843e-09 0.0000000000000000e+00  1.0134047948775226e-03 -8.2991377939800257e-09 0.0000000000000000e+00  1.0134047948963370e-03 -8.2991436125678247e-09 0.0000000000000000e+00  1.0134047948719936e-03 -8.2991501536679516e-09 0.0000000000000000e+00  1.0134047948819282e-03 -8.2991642913390201e-09 0.0000000000000000e+00  1.0134047948874023e-03 -8.2991695230481832e-09 0.0000000000000000e+00  1.0134047948619582e-03 -8.2991844520784175e-09 0.0000000000000000e+00  1.0134047948836648e-03 -8.2991529663052274e-09 0.0000000000000000e+00  1.0134047948772735e-03 -8.2991697110488399e-09 0.0000000000000000e+00  1.0134047948920834e-03 -8.2991713644571530e-09 0.0000000000000000e+00  1.0134047948679365e-03 -8.2991701627274650e-09 0.0000000000000000e+00  1.0134047948872878e-03 -8.2991526065669466e-09 0.0000000000000000e+00  1.0134047948712240e-03 -8.2991747911865393e-09 0.0000000000000000e+00  1.0134047948908251e-03 -8.2991513689501667e-09 0.0000000000000000e+00  1.0134047948982408e-03 -8.2991256261958843e-09 0.0000000000000000e+00  1.0134047948871573e-03 -8.2991341421702683e-09 0.0000000000000000e+00  1.0134047948827873e-03 -8.2991490362891926e-09 0.0000000000000000e+00  1.0134047948680072e-03 -8.2991668267458005e-09 0.0000000000000000e+00  1.0134047948838166e-03 -8.2991624224997354e-09 0.0000000000000000e+00  1.0134047948761236e-03 -8.2991469500673723e-09 0.0000000000000000e+00  1.0134047948909953e-03 -8.2991589159730692e-09 0.0000000000000000e+00  1.0134047948706080e-03 -8.2991780508403709e-09 0.0000000000000000e+00  1.0134047948792118e-03 -8.2991425265225086e-09 0.0000000000000000e+00  1.0134047948613559e-03 -8.2991759108421229e-09 0.0000000000000000e+00  1.0134047948804105e-03 9.3199532290379099e-10 0.0000000000000000e+00  8.8136105991261176e-04 -5.9927998456677997e-09 0.0000000000000000e+00  8.8136105992747530e-04 -5.9928067096433335e-09 0.0000000000000000e+00  8.8136105991444937e-04 -5.9928367142879357e-09 0.0000000000000000e+00  8.8136105992418919e-04 -5.9928185711403612e-09 0.0000000000000000e+00  8.8136105992600122e-04 -5.9928083196835596e-09 0.0000000000000000e+00  8.8136105992734682e-04 -5.9927912871926906e-09 0.0000000000000000e+00  8.8136105991599761e-04 -5.9928045735482133e-09 0.0000000000000000e+00  8.8136105993394192e-04 -5.9928032369437750e-09 0.0000000000000000e+00  8.8136105993528871e-04 -5.9927800884684509e-09 0.0000000000000000e+00  8.8136105994385933e-04 -5.9927895604923107e-09 0.0000000000000000e+00  8.8136105992224815e-04 -5.9928131534905255e-09 0.0000000000000000e+00  8.8136105992402591e-04 -5.9928091934420905e-09 0.0000000000000000e+00  8.8136105991618919e-04 -5.9928271662615037e-09 0.0000000000000000e+00  8.8136105992041921e-04 -5.9928005893220698e-09 0.0000000000000000e+00  8.8136105992905162e-04 -5.9928147663496772e-09 0.0000000000000000e+00  8.8136105992091458e-04 -5.9928134449240694e-09 0.0000000000000000e+00  8.8136105991104855e-04 -5.9928226121786984e-09 0.0000000000000000e+00  8.8136105993121103e-04 -5.9928210746715976e-09 0.0000000000000000e+00  8.8136105991136232e-04 -5.9928267917780734e-09 0.0000000000000000e+00  8.8136105994077434e-04 -5.9928039534929908e-09 0.0000000000000000e+00  8.8136105991977551e-04 -5.9928055714478928e-09 0.0000000000000000e+00  8.8136105993948425e-04 -5.9927991759561178e-09 0.0000000000000000e+00  8.8136105991959803e-04 -5.9928185102081991e-09 0.0000000000000000e+00  8.8136105991692341e-04 -5.9928371855906201e-09 0.0000000000000000e+00  8.8136105990584905e-04 -5.9928202440643133e-09 0.0000000000000000e+00  8.8136105993457336e-04 -5.9928108337315572e-09 0.0000000000000000e+00  8.8136105992990478e-04 -5.9928184175089133e-09 0.0000000000000000e+00  8.8136105992161584e-04 -5.9928182374229325e-09 0.0000000000000000e+00  8.8136105992898126e-04 -5.9928251513801864e-09 0.0000000000000000e+00  8.8136105992184558e-04 -5.9928332966658476e-09 0.0000000000000000e+00  8.8136105991261219e-04 5.6958152342824380e-10 0.0000000000000000e+00  5.9692196884226373e-04 -2.6689618362607526e-09 0.0000000000000000e+00  5.9692196886605296e-04 -2.6689764058237565e-09 0.0000000000000000e+00  5.9692196884519996e-04 -2.6689703864417151e-09 0.0000000000000000e+00  5.9692196884667242e-04 -2.6689795450227267e-09 0.0000000000000000e+00  5.9692196884406383e-04 -2.6689623208449136e-09 0.0000000000000000e+00  5.9692196885461084e-04 -2.6689690735813044e-09 0.0000000000000000e+00  5.9692196884376307e-04 -2.6689512897925399e-09 0.0000000000000000e+00  5.9692196885935097e-04 -2.6689691885609448e-09 0.0000000000000000e+00  5.9692196886260759e-04 -2.6689707639067015e-09 0.0000000000000000e+00  5.9692196885313535e-04 -2.6689915746795113e-09 0.0000000000000000e+00  5.9692196883881705e-04 -2.6689826712654810e-09 0.0000000000000000e+00  5.9692196884365107e-04 -2.6689861162636740e-09 0.0000000000000000e+00  5.9692196886243823e-04 -2.6689813915816568e-09 0.0000000000000000e+00  5.9692196883431967e-04 -2.6690019986328785e-09 0.0000000000000000e+00  5.9692196883661774e-04 -2.6690071684340975e-09 0.0000000000000000e+00  5.9692196884761654e-04 -2.6689917653906735e-09 0.0000000000000000e+00  5.9692196883415877e-04 -2.6689803810510219e-09 0.0000000000000000e+00  5.9692196885349161e-04 -2.6689666232843946e-09 0.0000000000000000e+00  5.9692196886203751e-04 -2.6689587931220948e-09 0.0000000000000000e+00  5.9692196885129405e-04 -2.6689877663651704e-09 0.0000000000000000e+00  5.9692196885489761e-04 -2.6689984472744524e-09 0.0000000000000000e+00  5.9692196884102654e-04 -2.6690012693984973e-09 0.0000000000000000e+00  5.9692196883313247e-04 -2.6690036706894689e-09 0.0000000000000000e+00  5.9692196885189632e-04 -2.6689790076921301e-09 0.0000000000000000e+00  5.9692196884072036e-04 -2.6689682807042557e-09 0.0000000000000000e+00  5.9692196885449147e-04 -2.6689956973582722e-09 0.0000000000000000e+00  5.9692196882922750e-04 -2.6689979891990345e-09 0.0000000000000000e+00  5.9692196885269310e-04 -2.6689870872209295e-09 0.0000000000000000e+00  5.9692196883414186e-04 -2.6689835681717282e-09 0.0000000000000000e+00  5.9692196885752181e-04 -2.6689951528719412e-09 0.0000000000000000e+00  5.9692196884226383e-04 5.6558142981342350e-11 0.0000000000000000e+00  2.0926949502896925e-04 7.2030551960316699e-10 0.0000000000000000e+00  2.0926949503567772e-04 7.2034017706073487e-10 0.0000000000000000e+00  2.0926949504758170e-04 7.2034027291775944e-10 0.0000000000000000e+00  2.0926949503933655e-04 7.2033617921430163e-10 0.0000000000000000e+00  2.0926949505285309e-04 7.2032958811890212e-10 0.0000000000000000e+00  2.0926949503381368e-04 7.2031861208978875e-10 0.0000000000000000e+00  2.0926949501275501e-04 7.2033185914298272e-10 0.0000000000000000e+00  2.0926949505399052e-04 7.2034912449337341e-10 0.0000000000000000e+00  2.0926949503232754e-04 7.2032652973365134e-10 0.0000000000000000e+00  2.0926949504186765e-04 7.2034769317032288e-10 0.0000000000000000e+00  2.0926949503835584e-04 7.2034685108404804e-10 0.0000000000000000e+00  2.0926949502322049e-04 7.2036769834026102e-10 0.0000000000000000e+00  2.0926949505989444e-04 7.2036904914774772e-10 0.0000000000000000e+00  2.0926949503612471e-04 7.2034959845235311e-10 0.0000000000000000e+00  2.0926949504260412e-04 7.2033951167230909e-10 0.0000000000000000e+00  2.0926949503443168e-04 7.2036308651013750e-10 0.0000000000000000e+00  2.0926949505280338e-04 7.2035444848169393e-10 0.0000000000000000e+00  2.0926949503547606e-04 7.2035954688819993e-10 0.0000000000000000e+00  2.0926949505632351e-04 7.2034784708637379e-10 0.0000000000000000e+00  2.0926949505638317e-04 7.2032857350895658e-10 0.0000000000000000e+00  2.0926949502664735e-04 7.2031778629365155e-10 0.0000000000000000e+00  2.0926949503208506e-04 7.2034319240315940e-10 0.0000000000000000e+00  2.0926949502466353e-04 7.2034074755436550e-10 0.0000000000000000e+00  2.0926949505262996e-04 7.2036813646635892e-10 0.0000000000000000e+00  2.0926949504373240e-04 7.2033461710936404e-10 0.0000000000000000e+00  2.0926949503054798e-04 7.2035861127593519e-10 0.0000000000000000e+00  2.0926949505564071e-04 7.2034751880350849e-10 0.0000000000000000e+00  2.0926949504088116e-04 7.2031946135890298e-10 0.0000000000000000e+00  2.0926949502817960e-04 7.2034582370762192e-10 0.0000000000000000e+00  2.0926949504870921e-04 7.2034382273119743e-10 0.0000000000000000e+00  2.0926949502896925e-04 -3.9870336958614137e-10 0.0000000000000000e+00  -2.1456777591508244e-04 3.4160354187820659e-09 0.0000000000000000e+00  -2.1456777589554669e-04 3.4160326710885001e-09 0.0000000000000000e+00  -2.1456777590208556e-04 3.4160174010224725e-09 0.0000000000000000e+00  -2.1456777590189724e-04 3.4160296462728591e-09 0.0000000000000000e+00  -2.1456777588812527e-04 3.4160344567694782e-09 0.0000000000000000e+00  -2.1456777589888988e-04 3.4160251735052168e-09 0.0000000000000000e+00  -2.1456777591763259e-04 3.4160531433191817e-09 0.0000000000000000e+00  -2.1456777588653691e-04 3.4160350317761004e-09 0.0000000000000000e+00  -2.1456777589659007e-04 3.4160262939197418e-09 0.0000000000000000e+00  -2.1456777590969178e-04 3.4160334761628233e-09 0.0000000000000000e+00  -2.1456777589934291e-04 3.4160349277469020e-09 0.0000000000000000e+00  -2.1456777588803203e-04 3.4160028144374945e-09 0.0000000000000000e+00  -2.1456777591122636e-04 3.4160216316335597e-09 0.0000000000000000e+00  -2.1456777590063322e-04 3.4160058859280390e-09 0.0000000000000000e+00  -2.1456777590735397e-04 3.4159980112050299e-09 0.0000000000000000e+00  -2.1456777591106292e-04 3.4160052470619089e-09 0.0000000000000000e+00  -2.1456777589690855e-04 3.4160107770350896e-09 0.0000000000000000e+00  -2.1456777589528648e-04 3.4160357261533818e-09 0.0000000000000000e+00  -2.1456777589618393e-04 3.4160313390919211e-09 0.0000000000000000e+00  -2.1456777589169143e-04 3.4160337371302862e-09 0.0000000000000000e+00  -2.1456777590212102e-04 3.4160077540625923e-09 0.0000000000000000e+00  -2.1456777592716657e-04 3.4160303815245624e-09 0.0000000000000000e+00  -2.1456777590376000e-04 3.4160509566460301e-09 0.0000000000000000e+00  -2.1456777588676692e-04 3.4160372784598422e-09 0.0000000000000000e+00  -2.1456777588659448e-04 3.4160511219868614e-09 0.0000000000000000e+00  -2.1456777589972515e-04 3.4160278722470544e-09 0.0000000000000000e+00  -2.1456777591919915e-04 3.4160377724223520e-09 0.0000000000000000e+00  -2.1456777588330431e-04 3.4160358288273275e-09 0.0000000000000000e+00  -2.1456777589831764e-04 3.4160285383266591e-09 0.0000000000000000e+00  -2.1456777590686765e-04 3.4160174726340260e-09 0.0000000000000000e+00  -2.1456777591508260e-04 -6.2384386967826899e-10 0.0000000000000000e+00  -6.0130446450034627e-04 5.0974045990052549e-09 0.0000000000000000e+00  -6.0130446450011772e-04 5.0974103782365152e-09 0.0