<?xml version="1.0"?>
<VTKFile type="UnstructuredGrid"  version="0.1"  >
<UnstructuredGrid>
<Piece  NumberOfPoints="961" NumberOfCells="1800">
<Points>
<DataArray  type="Float64"  NumberOfComponents="3"  format="ascii">0 0 0  0.03333333333333333 0 0  0.06666666666666667 0 0  0.1 0 0  0.1333333333333333 0 0  0.1666666666666667 0 0  0.2 0 0  0.2333333333333333 0 0  0.2666666666666667 0 0  0.3 0 0  0.3333333333333333 0 0  0.3666666666666666 0 0  0.4 0 0  0.4333333333333333 0 0  0.4666666666666667 0 0  0.5 0 0  0.5333333333333333 0 0  0.5666666666666667 0 0  0.6 0 0  0.6333333333333333 0 0  0.6666666666666666 0 0  0.7 0 0  0.7333333333333333 0 0  0.7666666666666667 0 0  0.8 0 0  0.8333333333333334 0 0  0.8666666666666667 0 0  0.9 0 0  0.9333333333333333 0 0  0.9666666666666667 0 0  1 0 0  0 0.03333333333333333 0  0.03333333333333333 0.03333333333333333 0  0.06666666666666667 0.03333333333333333 0  0.1 0.03333333333333333 0  0.1333333333333333 0.03333333333333333 0  0.1666666666666667 0.03333333333333333 0  0.2 0.03333333333333333 0  0.2333333333333333 0.03333333333333333 0  0.2666666666666667 0.03333333333333333 0  0.3 0.03333333333333333 0  0.3333333333333333 0.03333333333333333 0  0.3666666666666666 0.03333333333333333 0  0.4 0.03333333333333333 0  0.4333333333333333 0.03333333333333333 0  0.4666666666666667 0.03333333333333333 0  0.5 0.03333333333333333 0  0.5333333333333333 0.03333333333333333 0  0.5666666666666667 0.03333333333333333 0  0.6 0.03333333333333333 0  0.6333333333333333 0.03333333333333333 0  0.6666666666666666 0.03333333333333333 0  0.7 0.03333333333333333 0  0.7333333333333333 0.03333333333333333 0  0.7666666666666667 0.03333333333333333 0  0.8 0.03333333333333333 0  0.8333333333333334 0.03333333333333333 0  0.8666666666666667 0.03333333333333333 0  0.9 0.03333333333333333 0  0.9333333333333333 0.03333333333333333 0  0.9666666666666667 0.03333333333333333 0  1 0.03333333333333333 0  0 0.06666666666666667 0  0.03333333333333333 0.06666666666666667 0  0.06666666666666667 0.06666666666666667 0  0.1 0.06666666666666667 0  0.1333333333333333 0.06666666666666667 0  0.1666666666666667 0.06666666666666667 0  0.2 0.06666666666666667 0  0.2333333333333333 0.06666666666666667 0  0.2666666666666667 0.06666666666666667 0  0.3 0.06666666666666667 0  0.3333333333333333 0.06666666666666667 0  0.3666666666666666 0.06666666666666667 0  0.4 0.06666666666666667 0  0.4333333333333333 0.06666666666666667 0  0.4666666666666667 0.06666666666666667 0  0.5 0.06666666666666667 0  0.5333333333333333 0.06666666666666667 0  0.5666666666666667 0.06666666666666667 0  0.6 0.06666666666666667 0  0.6333333333333333 0.06666666666666667 0  0.6666666666666666 0.06666666666666667 0  0.7 0.06666666666666667 0  0.7333333333333333 0.06666666666666667 0  0.7666666666666667 0.06666666666666667 0  0.8 0.06666666666666667 0  0.8333333333333334 0.06666666666666667 0  0.8666666666666667 0.06666666666666667 0  0.9 0.06666666666666667 0  0.9333333333333333 0.06666666666666667 0  0.9666666666666667 0.06666666666666667 0  1 0.06666666666666667 0  0 0.1 0  0.03333333333333333 0.1 0  0.06666666666666667 0.1 0  0.1 0.1 0  0.1333333333333333 0.1 0  0.1666666666666667 0.1 0  0.2 0.1 0  0.2333333333333333 0.1 0  0.2666666666666667 0.1 0  0.3 0.1 0  0.3333333333333333 0.1 0  0.3666666666666666 0.1 0  0.4 0.1 0  0.4333333333333333 0.1 0  0.4666666666666667 0.1 0  0.5 0.1 0  0.5333333333333333 0.1 0  0.5666666666666667 0.1 0  0.6 0.1 0  0.6333333333333333 0.1 0  0.6666666666666666 0.1 0  0.7 0.1 0  0.7333333333333333 0.1 0  0.7666666666666667 0.1 0  0.8 0.1 0  0.8333333333333334 0.1 0  0.8666666666666667 0.1 0  0.9 0.1 0  0.9333333333333333 0.1 0  0.9666666666666667 0.1 0  1 0.1 0  0 0.1333333333333333 0  0.03333333333333333 0.1333333333333333 0  0.06666666666666667 0.1333333333333333 0  0.1 0.1333333333333333 0  0.1333333333333333 0.1333333333333333 0  0.1666666666666667 0.1333333333333333 0  0.2 0.1333333333333333 0  0.2333333333333333 0.1333333333333333 0  0.2666666666666667 0.1333333333333333 0  0.3 0.1333333333333333 0  0.3333333333333333 0.1333333333333333 0  0.3666666666666666 0.1333333333333333 0  0.4 0.1333333333333333 0  0.4333333333333333 0.1333333333333333 0  0.4666666666666667 0.1333333333333333 0  0.5 0.1333333333333333 0  0.5333333333333333 0.1333333333333333 0  0.5666666666666667 0.1333333333333333 0  0.6 0.1333333333333333 0  0.6333333333333333 0.1333333333333333 0  0.6666666666666666 0.1333333333333333 0  0.7 0.1333333333333333 0  0.7333333333333333 0.1333333333333333 0  0.7666666666666667 0.1333333333333333 0  0.8 0.1333333333333333 0  0.8333333333333334 0.1333333333333333 0  0.8666666666666667 0.1333333333333333 0  0.9 0.1333333333333333 0  0.9333333333333333 0.1333333333333333 0  0.9666666666666667 0.1333333333333333 0  1 0.1333333333333333 0  0 0.1666666666666667 0  0.03333333333333333 0.1666666666666667 0  0.06666666666666667 0.1666666666666667 0  0.1 0.1666666666666667 0  0.1333333333333333 0.1666666666666667 0  0.1666666666666667 0.1666666666666667 0  0.2 0.1666666666666667 0  0.2333333333333333 0.1666666666666667 0  0.2666666666666667 0.1666666666666667 0  0.3 0.1666666666666667 0  0.3333333333333333 0.1666666666666667 0  0.3666666666666666 0.1666666666666667 0  0.4 0.1666666666666667 0  0.4333333333333333 0.1666666666666667 0  0.4666666666666667 0.1666666666666667 0  0.5 0.1666666666666667 0  0.5333333333333333 0.1666666666666667 0  0.5666666666666667 0.1666666666666667 0  0.6 0.1666666666666667 0  0.6333333333333333 0.1666666666666667 0  0.6666666666666666 0.1666666666666667 0  0.7 0.1666666666666667 0  0.7333333333333333 0.1666666666666667 0  0.7666666666666667 0.1666666666666667 0  0.8 0.1666666666666667 0  0.8333333333333334 0.1666666666666667 0  0.8666666666666667 0.1666666666666667 0  0.9 0.1666666666666667 0  0.9333333333333333 0.1666666666666667 0  0.9666666666666667 0.1666666666666667 0  1 0.1666666666666667 0  0 0.2 0  0.03333333333333333 0.2 0  0.06666666666666667 0.2 0  0.1 0.2 0  0.1333333333333333 0.2 0  0.1666666666666667 0.2 0  0.2 0.2 0  0.2333333333333333 0.2 0  0.2666666666666667 0.2 0  0.3 0.2 0  0.3333333333333333 0.2 0  0.3666666666666666 0.2 0  0.4 0.2 0  0.4333333333333333 0.2 0  0.4666666666666667 0.2 0  0.5 0.2 0  0.5333333333333333 0.2 0  0.5666666666666667 0.2 0  0.6 0.2 0  0.6333333333333333 0.2 0  0.6666666666666666 0.2 0  0.7 0.2 0  0.7333333333333333 0.2 0  0.7666666666666667 0.2 0  0.8 0.2 0  0.8333333333333334 0.2 0  0.8666666666666667 0.2 0  0.9 0.2 0  0.9333333333333333 0.2 0  0.9666666666666667 0.2 0  1 0.2 0  0 0.2333333333333333 0  0.03333333333333333 0.2333333333333333 0  0.06666666666666667 0.2333333333333333 0  0.1 0.2333333333333333 0  0.1333333333333333 0.2333333333333333 0  0.1666666666666667 0.2333333333333333 0  0.2 0.2333333333333333 0  0.2333333333333333 0.2333333333333333 0  0.2666666666666667 0.2333333333333333 0  0.3 0.2333333333333333 0  0.3333333333333333 0.2333333333333333 0  0.3666666666666666 0.2333333333333333 0  0.4 0.2333333333333333 0  0.4333333333333333 0.2333333333333333 0  0.4666666666666667 0.2333333333333333 0  0.5 0.2333333333333333 0  0.5333333333333333 0.2333333333333333 0  0.5666666666666667 0.2333333333333333 0  0.6 0.2333333333333333 0  0.6333333333333333 0.2333333333333333 0  0.6666666666666666 0.2333333333333333 0  0.7 0.2333333333333333 0  0.7333333333333333 0.2333333333333333 0  0.7666666666666667 0.2333333333333333 0  0.8 0.2333333333333333 0  0.8333333333333334 0.2333333333333333 0  0.8666666666666667 0.2333333333333333 0  0.9 0.2333333333333333 0  0.9333333333333333 0.2333333333333333 0  0.9666666666666667 0.2333333333333333 0  1 0.2333333333333333 0  0 0.2666666666666667 0  0.03333333333333333 0.2666666666666667 0  0.06666666666666667 0.2666666666666667 0  0.1 0.2666666666666667 0  0.1333333333333333 0.2666666666666667 0  0.1666666666666667 0.2666666666666667 0  0.2 0.2666666666666667 0  0.2333333333333333 0.2666666666666667 0  0.2666666666666667 0.2666666666666667 0  0.3 0.2666666666666667 0  0.3333333333333333 0.2666666666666667 0  0.3666666666666666 0.2666666666666667 0  0.4 0.2666666666666667 0  0.4333333333333333 0.2666666666666667 0  0.4666666666666667 0.2666666666666667 0  0.5 0.2666666666666667 0  0.5333333333333333 0.2666666666666667 0  0.5666666666666667 0.2666666666666667 0  0.6 0.2666666666666667 0  0.6333333333333333 0.2666666666666667 0  0.6666666666666666 0.2666666666666667 0  0.7 0.2666666666666667 0  0.7333333333333333 0.2666666666666667 0  0.7666666666666667 0.2666666666666667 0  0.8 0.2666666666666667 0  0.8333333333333334 0.2666666666666667 0  0.8666666666666667 0.2666666666666667 0  0.9 0.2666666666666667 0  0.9333333333333333 0.2666666666666667 0  0.9666666666666667 0.2666666666666667 0  1 0.2666666666666667 0  0 0.3 0  0.03333333333333333 0.3 0  0.06666666666666667 0.3 0  0.1 0.3 0  0.1333333333333333 0.3 0  0.1666666666666667 0.3 0  0.2 0.3 0  0.2333333333333333 0.3 0  0.2666666666666667 0.3 0  0.3 0.3 0  0.3333333333333333 0.3 0  0.3666666666666666 0.3 0  0.4 0.3 0  0.4333333333333333 0.3 0  0.4666666666666667 0.3 0  0.5 0.3 0  0.5333333333333333 0.3 0  0.5666666666666667 0.3 0  0.6 0.3 0  0.6333333333333333 0.3 0  0.6666666666666666 0.3 0  0.7 0.3 0  0.7333333333333333 0.3 0  0.7666666666666667 0.3 0  0.8 0.3 0  0.8333333333333334 0.3 0  0.8666666666666667 0.3 0  0.9 0.3 0  0.9333333333333333 0.3 0  0.9666666666666667 0.3 0  1 0.3 0  0 0.3333333333333333 0  0.03333333333333333 0.3333333333333333 0  0.06666666666666667 0.3333333333333333 0  0.1 0.3333333333333333 0  0.1333333333333333 0.3333333333333333 0  0.1666666666666667 0.3333333333333333 0  0.2 0.3333333333333333 0  0.2333333333333333 0.3333333333333333 0  0.2666666666666667 0.3333333333333333 0  0.3 0.3333333333333333 0  0.3333333333333333 0.3333333333333333 0  0.3666666666666666 0.3333333333333333 0  0.4 0.3333333333333333 0  0.4333333333333333 0.3333333333333333 0  0.4666666666666667 0.3333333333333333 0  0.5 0.3333333333333333 0  0.5333333333333333 0.33333333333333
[...]
<PointData  Vectors="u_f"> 
<DataArray  type="Float64"  Name="u_f"  NumberOfComponents="3" format="ascii">2.7085833376815191e-06 -1.3174285614248743e-09 0.0000000000000000e+00  2.7085833577445719e-06 -1.3174269869464794e-09 0.0000000000000000e+00  2.7085833522606773e-06 -1.3174093540244472e-09 0.0000000000000000e+00  2.7085833505951259e-06 -1.3174058181701122e-09 0.0000000000000000e+00  2.7085833548794592e-06 -1.3174128158277738e-09 0.0000000000000000e+00  2.7085833536153879e-06 -1.3174108535302619e-09 0.0000000000000000e+00  2.7085833703014762e-06 -1.3174285418550251e-09 0.0000000000000000e+00  2.7085833407018353e-06 -1.3174442395303895e-09 0.0000000000000000e+00  2.7085833417422357e-06 -1.3174331065088016e-09 0.0000000000000000e+00  2.7085833532714248e-06 -1.3173950924290703e-09 0.0000000000000000e+00  2.7085833610024910e-06 -1.3173828216999327e-09 0.0000000000000000e+00  2.7085833292858912e-06 -1.3175233327293936e-09 0.0000000000000000e+00  2.7085832839440684e-06 -1.3174551519710455e-09 0.0000000000000000e+00  2.7085833611855043e-06 -1.3174207092532704e-09 0.0000000000000000e+00  2.7085833619572394e-06 -1.3174110821885000e-09 0.0000000000000000e+00  2.7085833532631306e-06 -1.3174312509509935e-09 0.0000000000000000e+00  2.7085833561479216e-06 -1.3174288162123848e-09 0.0000000000000000e+00  2.7085833523629718e-06 -1.3174307399665096e-09 0.0000000000000000e+00  2.7085833552093277e-06 -1.3174256312600829e-09 0.0000000000000000e+00  2.7085833455071278e-06 -1.3174243277238110e-09 0.0000000000000000e+00  2.7085833674945852e-06 -1.3174145971719432e-09 0.0000000000000000e+00  2.7085833481885224e-06 -1.3174470507039925e-09 0.0000000000000000e+00  2.7085833813831066e-06 -1.3173205618238586e-09 0.0000000000000000e+00  2.7085834118567771e-06 -1.3173926683156430e-09 0.0000000000000000e+00  2.7085833680238385e-06 -1.3174315498113223e-09 0.0000000000000000e+00  2.7085833469496045e-06 -1.3174120435505664e-09 0.0000000000000000e+00  2.7085833598149102e-06 -1.3174251052051889e-09 0.0000000000000000e+00  2.7085833568388294e-06 -1.3174409921280425e-09 0.0000000000000000e+00  2.7085833398891716e-06 -1.3174076802873434e-09 0.0000000000000000e+00  2.7085833689835742e-06 -1.3174321486703923e-09 0.0000000000000000e+00  2.7085833376815733e-06 2.6185704121482620e-10 0.0000000000000000e+00  4.1704963388686342e-04 -3.9099024751361455e-09 0.0000000000000000e+00  4.1704963386301076e-04 -3.9098723718291456e-09 0.0000000000000000e+00  4.1704963387971744e-04 -3.9098858208149942e-09 0.0000000000000000e+00  4.1704963389226405e-04 -3.9098746920217947e-09 0.0000000000000000e+00  4.1704963388709566e-04 -3.9098777018754458e-09 0.0000000000000000e+00  4.1704963387960436e-04 -3.9098789000272666e-09 0.0000000000000000e+00  4.1704963388303174e-04 -3.9098821170719528e-09 0.0000000000000000e+00  4.1704963388308433e-04 -3.9098766022776024e-09 0.0000000000000000e+00  4.1704963388116182e-04 -3.9098753757196847e-09 0.0000000000000000e+00  4.1704963387945951e-04 -3.9098813994385348e-09 0.0000000000000000e+00  4.1704963387977577e-04 -3.9098762608623383e-09 0.0000000000000000e+00  4.1704963382655207e-04 -3.9099511372738330e-09 0.0000000000000000e+00  4.1704963382893623e-04 -3.9099166399122684e-09 0.0000000000000000e+00  4.1704963387017853e-04 -3.9098600256937469e-09 0.0000000000000000e+00  4.1704963390595958e-04 -3.9098553380372339e-09 0.0000000000000000e+00  4.1704963387605989e-04 -3.9098644602974728e-09 0.0000000000000000e+00  4.1704963388263709e-04 -3.9098689488944668e-09 0.0000000000000000e+00  4.1704963387923248e-04 -3.9098837705886860e-09 0.0000000000000000e+00  4.1704963387124289e-04 -3.9098672303256032e-09 0.0000000000000000e+00  4.1704963388066048e-04 -3.9098864343650036e-09 0.0000000000000000e+00  4.1704963388905123e-04 -3.9098667791890793e-09 0.0000000000000000e+00  4.1704963387920407e-04 -3.9098802683988285e-09 0.0000000000000000e+00  4.1704963392572274e-04 -3.9097982039437706e-09 0.0000000000000000e+00  4.1704963394277085e-04 -3.9098616563338143e-09 0.0000000000000000e+00  4.1704963388253843e-04 -3.9098739192024862e-09 0.0000000000000000e+00  4.1704963387853805e-04 -3.9098814803200169e-09 0.0000000000000000e+00  4.1704963387990935e-04 -3.9098659843604666e-09 0.0000000000000000e+00  4.1704963388784668e-04 -3.9098822757991508e-09 0.0000000000000000e+00  4.1704963387372636e-04 -3.9098915594970932e-09 0.0000000000000000e+00  4.1704963387700098e-04 -3.9098818263973503e-09 0.0000000000000000e+00  4.1704963388686364e-04 1.0500310363893577e-09 0.0000000000000000e+00  7.5927894974008676e-04 -6.0541957475936103e-09 0.0000000000000000e+00  7.5927894974011712e-04 -6.0541900467501672e-09 0.0000000000000000e+00  7.5927894974298115e-04 -6.0542031082421593e-09 0.0000000000000000e+00  7.5927894973262073e-04 -6.0542142346501140e-09 0.0000000000000000e+00  7.5927894973173624e-04 -6.0541899524245782e-09 0.0000000000000000e+00  7.5927894974156692e-04 -6.0541726666640816e-09 0.0000000000000000e+00  7.5927894975300557e-04 -6.0542000815833746e-09 0.0000000000000000e+00  7.5927894972821735e-04 -6.0541941230250751e-09 0.0000000000000000e+00  7.5927894973930928e-04 -6.0541945530196567e-09 0.0000000000000000e+00  7.5927894973185496e-04 -6.0542231573087329e-09 0.0000000000000000e+00  7.5927894972997972e-04 -6.0541957844564842e-09 0.0000000000000000e+00  7.5927894968274841e-04 -6.0542683915244117e-09 0.0000000000000000e+00  7.5927894969905166e-04 -6.0542304519293696e-09 0.0000000000000000e+00  7.5927894972616311e-04 -6.0542049640710180e-09 0.0000000000000000e+00  7.5927894973365799e-04 -6.0541929593508834e-09 0.0000000000000000e+00  7.5927894974718113e-04 -6.0542080866816950e-09 0.0000000000000000e+00  7.5927894972840730e-04 -6.0542060278901896e-09 0.0000000000000000e+00  7.5927894973490189e-04 -6.0541881075461615e-09 0.0000000000000000e+00  7.5927894973071720e-04 -6.0542045302817288e-09 0.0000000000000000e+00  7.5927894973603911e-04 -6.0541939315549714e-09 0.0000000000000000e+00  7.5927894974244891e-04 -6.0542031804500240e-09 0.0000000000000000e+00  7.5927894973727478e-04 -6.0542234395265584e-09 0.0000000000000000e+00  7.5927894979205398e-04 -6.0541107282539516e-09 0.0000000000000000e+00  7.5927894979952045e-04 -6.0541838636535977e-09 0.0000000000000000e+00  7.5927894972986957e-04 -6.0542014887693743e-09 0.0000000000000000e+00  7.5927894972936758e-04 -6.0542268345972414e-09 0.0000000000000000e+00  7.5927894972005645e-04 -6.0542175399488571e-09 0.0000000000000000e+00  7.5927894973864163e-04 -6.0542098492691668e-09 0.0000000000000000e+00  7.5927894971756572e-04 -6.0541839653517615e-09 0.0000000000000000e+00  7.5927894974760581e-04 -6.0542052793570098e-09 0.0000000000000000e+00  7.5927894974008720e-04 1.7803169129064565e-09 0.0000000000000000e+00  9.7022209287964492e-04 -7.0329427960622720e-09 0.0000000000000000e+00  9.7022209287592545e-04 -7.0329508438781579e-09 0.0000000000000000e+00  9.7022209287696325e-04 -7.0329364803677769e-09 0.0000000000000000e+00  9.7022209287781522e-04 -7.0329500008025486e-09 0.0000000000000000e+00  9.7022209286829007e-04 -7.0329707656593965e-09 0.0000000000000000e+00  9.7022209287451816e-04 -7.0329501799127475e-09 0.0000000000000000e+00  9.7022209287382036e-04 -7.0329504394707476e-09 0.0000000000000000e+00  9.7022209288497724e-04 -7.0329450449144182e-09 0.0000000000000000e+00  9.7022209287622751e-04 -7.0329474162814098e-09 0.0000000000000000e+00  9.7022209286037691e-04 -7.0329455759566423e-09 0.0000000000000000e+00  9.7022209289014259e-04 -7.0329465545575232e-09 0.0000000000000000e+00  9.7022209283354464e-04 -7.0329375821340245e-09 0.0000000000000000e+00  9.7022209290676710e-04 -7.0329473484103538e-09 0.0000000000000000e+00  9.7022209286844511e-04 -7.0329423305058592e-09 0.0000000000000000e+00  9.7022209288677203e-04 -7.0329710377941418e-09 0.0000000000000000e+00  9.7022209286634978e-04 -7.0329579813978998e-09 0.0000000000000000e+00  9.7022209287947101e-04 -7.0329461700994328e-09 0.0000000000000000e+00  9.7022209286862986e-04 -7.0329632634140438e-09 0.0000000000000000e+00  9.7022209287959352e-04 -7.0329280105804054e-09 0.0000000000000000e+00  9.7022209287080238e-04 -7.0329603813878289e-09 0.0000000000000000e+00  9.7022209288039475e-04 -7.0329502590595061e-09 0.0000000000000000e+00  9.7022209287428505e-04 -7.0329549350066356e-09 0.0000000000000000e+00  9.7022209289684622e-04 -7.0329507293864085e-09 0.0000000000000000e+00  9.7022209288526520e-04 -7.0329595185797400e-09 0.0000000000000000e+00  9.7022209288212253e-04 -7.0329270178848963e-09 0.0000000000000000e+00  9.7022209287698884e-04 -7.0329550815907693e-09 0.0000000000000000e+00  9.7022209286650460e-04 -7.0329454150610399e-09 0.0000000000000000e+00  9.7022209288327244e-04 -7.0329512031827579e-09 0.0000000000000000e+00  9.7022209285914374e-04 -7.0329621681530091e-09 0.0000000000000000e+00  9.7022209287510753e-04 -7.0329350654839418e-09 0.0000000000000000e+00  9.7022209287964492e-04 2.2236214626734454e-09 0.0000000000000000e+00  1.0134051438452332e-03 -6.4599635729665345e-09 0.0000000000000000e+00  1.0134051438429759e-03 -6.4599740982928047e-09 0.0000000000000000e+00  1.0134051438461969e-03 -6.4599657844137057e-09 0.0000000000000000e+00  1.0134051438357968e-03 -6.4599634061078201e-09 0.0000000000000000e+00  1.0134051438513507e-03 -6.4599605967231508e-09 0.0000000000000000e+00  1.0134051438367077e-03 -6.4599761680347520e-09 0.0000000000000000e+00  1.0134051438483937e-03 -6.4599738557567787e-09 0.0000000000000000e+00  1.0134051438349251e-03 -6.4599577137211539e-09 0.0000000000000000e+00  1.0134051438528743e-03 -6.4599452613339423e-09 0.0000000000000000e+00  1.0134051438518699e-03 -6.4599613381005963e-09 0.0000000000000000e+00  1.0134051438448512e-03 -6.4599893588720633e-09 0.0000000000000000e+00  1.0134051438398233e-03 -6.4599813920460797e-09 0.0000000000000000e+00  1.0134051438365566e-03 -6.4599828715483643e-09 0.0000000000000000e+00  1.0134051438359173e-03 -6.4599549252615865e-09 0.0000000000000000e+00  1.0134051438555607e-03 -6.4599759211619173e-09 0.0000000000000000e+00  1.0134051438379795e-03 -6.4599547464766482e-09 0.0000000000000000e+00  1.0134051438532965e-03 -6.4599523428004318e-09 0.0000000000000000e+00  1.0134051438417514e-03 -6.4599732453509556e-09 0.0000000000000000e+00  1.0134051438384216e-03 -6.4599772742462286e-09 0.0000000000000000e+00  1.0134051438360596e-03 -6.4599658950023273e-09 0.0000000000000000e+00  1.0134051438401201e-03 -6.4599642248973008e-09 0.0000000000000000e+00  1.0134051438593981e-03 -6.4599632419596112e-09 0.0000000000000000e+00  1.0134051438389778e-03 -6.4599841900466262e-09 0.0000000000000000e+00  1.0134051438438461e-03 -6.4599755219586774e-09 0.0000000000000000e+00  1.0134051438403092e-03 -6.4599667134665473e-09 0.0000000000000000e+00  1.0134051438470966e-03 -6.4599687439603759e-09 0.0000000000000000e+00  1.0134051438392599e-03 -6.4599563161845536e-09 0.0000000000000000e+00  1.0134051438547829e-03 -6.4599474718053315e-09 0.0000000000000000e+00  1.0134051438444669e-03 -6.4599791163057196e-09 0.0000000000000000e+00  1.0134051438378104e-03 -6.4599407248152121e-09 0.0000000000000000e+00  1.0134051438452337e-03 2.2048270626107055e-09 0.0000000000000000e+00  8.8136132986388902e-04 -4.4903895207205891e-09 0.0000000000000000e+00  8.8136132984950382e-04 -4.4903906138132194e-09 0.0000000000000000e+00  8.8136132985201332e-04 -4.4904094049884324e-09 0.0000000000000000e+00  8.8136132984660564e-04 -4.4904017993101925e-09 0.0000000000000000e+00  8.8136132985243561e-04 -4.4903724161302755e-09 0.0000000000000000e+00  8.8136132986370460e-04 -4.4903626068111199e-09 0.0000000000000000e+00  8.8136132983824915e-04 -4.4904026291585353e-09 0.0000000000000000e+00  8.8136132986263460e-04 -4.4903688887869275e-09 0.0000000000000000e+00  8.8136132987226166e-04 -4.4903621377852601e-09 0.0000000000000000e+00  8.8136132985531341e-04 -4.4903595026318799e-09 0.0000000000000000e+00  8.8136132985165022e-04 -4.4903766574207540e-09 0.0000000000000000e+00  8.8136132985751283e-04 -4.4903985681708780e-09 0.0000000000000000e+00  8.8136132983938204e-04 -4.4903973250246670e-09 0.0000000000000000e+00  8.8136132985278549e-04 -4.4904154047464145e-09 0.0000000000000000e+00  8.8136132984925283e-04 -4.4903939876335397e-09 0.0000000000000000e+00  8.8136132985021127e-04 -4.4904128011433175e-09 0.0000000000000000e+00  8.8136132984481714e-04 -4.4904032301317995e-09 0.0000000000000000e+00  8.8136132985678468e-04 -4.4903850299551906e-09 0.0000000000000000e+00  8.8136132983249432e-04 -4.4903881223166270e-09 0.0000000000000000e+00  8.8136132985545219e-04 -4.4903884524561885e-09 0.0000000000000000e+00  8.8136132983852335e-04 -4.4903847719150736e-09 0.0000000000000000e+00  8.8136132986540018e-04 -4.4903893429114328e-09 0.0000000000000000e+00  8.8136132986856627e-04 -4.4903798472519657e-09 0.0000000000000000e+00  8.8136132984918604e-04 -4.4903970244838248e-09 0.0000000000000000e+00  8.8136132984346395e-04 -4.4903956543775395e-09 0.0000000000000000e+00  8.8136132985549990e-04 -4.4903924551137689e-09 0.0000000000000000e+00  8.8136132985527059e-04 -4.4903950010373103e-09 0.0000000000000000e+00  8.8136132985474757e-04 -4.4904019319081181e-09 0.0000000000000000e+00  8.8136132984535924e-04 -4.4903995102341457e-09 0.0000000000000000e+00  8.8136132985704467e-04 -4.4903949358767598e-09 0.0000000000000000e+00  8.8136132986388945e-04 1.6981912778861238e-09 0.0000000000000000e+00  5.9692211764676597e-04 -1.7563064217481113e-09 0.0000000000000000e+00  5.9692211765071280e-04 -1.7562778723196650e-09 0.0000000000000000e+00  5.9692211765663005e-04 -1.7562762923660491e-09 0.0000000000000000e+00  5.9692211765657844e-04 -1.7562932096062273e-09 0.0000000000000000e+00  5.9692211765780597e-04 -1.7562984687999154e-09 0.0000000000000000e+00  5.9692211765230777e-04 -1.7562863409686241e-09 0.0000000000000000e+00  5.9692211765219891e-04 -1.7562656607337558e-09 0.0000000000000000e+00  5.9692211763852040e-04 -1.7562765965389686e-09 0.0000000000000000e+00  5.9692211768440319e-04 -1.7563061177378221e-09 0.0000000000000000e+00  5.9692211764849723e-04 -1.7562944146427319e-09 0.0000000000000000e+00  5.9692211764144178e-04 -1.7562781902619520e-09 0.0000000000000000e+00  5.9692211766284350e-04 -1.7562737707828464e-09 0.0000000000000000e+00  5.9692211765674161e-04 -1.7562840150297035e-09 0.0000000000000000e+00  5.9692211765037192e-04 -1.7562679146274421e-09 0.0000000000000000e+00  5.9692211766074568e-04 -1.7562799724734832e-09 0.0000000000000000e+00  5.9692211764584039e-04 -1.7562851956174491e-09 0.0000000000000000e+00  5.9692211766002165e-04 -1.7562838306611241e-09 0.0000000000000000e+00  5.9692211764973257e-04 -1.7562604952693454e-09 0.0000000000000000e+00  5.9692211765480457e-04 -1.7563055584521314e-09 0.0000000000000000e+00  5.9692211763017226e-04 -1.7563155506219834e-09 0.0000000000000000e+00  5.9692211764849072e-04 -1.7562958149440477e-09 0.0000000000000000e+00  5.9692211765913032e-04 -1.7562885168539641e-09 0.0000000000000000e+00  5.9692211765675321e-04 -1.7562899468624195e-09 0.0000000000000000e+00  5.9692211767871091e-04 -1.7562942749432819e-09 0.0000000000000000e+00  5.9692211762871553e-04 -1.7562802579439152e-09 0.0000000000000000e+00  5.9692211765338752e-04 -1.7562758295201417e-09 0.0000000000000000e+00  5.9692211765536955e-04 -1.7562926210470779e-09 0.0000000000000000e+00  5.9692211764808079e-04 -1.7562878847640975e-09 0.0000000000000000e+00  5.9692211763654184e-04 -1.7562945001320732e-09 0.0000000000000000e+00  5.9692211765392962e-04 -1.7563019082686773e-09 0.0000000000000000e+00  5.9692211764676608e-04 8.4939578089208369e-10 0.0000000000000000e+00  2.0926951678201306e-04 9.3545345467461061e-10 0.0000000000000000e+00  2.0926951678747245e-04 9.3543906225668910e-10 0.0000000000000000e+00  2.0926951678513860e-04 9.3544310341699913e-10 0.0000000000000000e+00  2.0926951679201759e-04 9.3542185587334407e-10 0.0000000000000000e+00  2.0926951678362386e-04 9.3543717048652844e-10 0.0000000000000000e+00  2.0926951677742068e-04 9.3544920122751521e-10 0.0000000000000000e+00  2.0926951677891414e-04 9.3544680081745785e-10 0.0000000000000000e+00  2.0926951679019217e-04 9.3543651772905797e-10 0.0000000000000000e+00  2.0926951679053587e-04 9.3544452933259133e-10 0.0000000000000000e+00  2.0926951677849697e-04 9.3543618781988941e-10 0.0000000000000000e+00  2.0926951677185311e-04 9.3542220151699666e-10 0.0000000000000000e+00  2.0926951678891151e-04 9.3544812476383573e-10 0.0000000000000000e+00  2.0926951678065176e-04 9.3542257888711532e-10 0.0000000000000000e+00  2.0926951678277059e-04 9.3541820999959360e-10 0.0000000000000000e+00  2.0926951678341895e-04 9.3539753019840615e-10 0.0000000000000000e+00  2.0926951677279593e-04 9.3541863438342896e-10 0.0000000000000000e+00  2.0926951677517007e-04 9.3542503262636703e-10 0.0000000000000000e+00  2.0926951679548585e-04 9.3543828806857531e-10 0.0000000000000000e+00  2.0926951679278401e-04 9.3544543976426062e-10 0.0000000000000000e+00  2.0926951677888498e-04 9.3541737661404119e-10 0.0000000000000000e+00  2.0926951677935923e-04 9.3543169545529277e-10 0.0000000000000000e+00  2.0926951677333232e-04 9.3542604182885424e-10 0.0000000000000000e+00  2.0926951677948123e-04 9.3543856005424281e-10 0.0000000000000000e+00  2.0926951680411986e-04 9.3544804601010043e-10 0.0000000000000000e+00  2.0926951678915408e-04 9.3543927066745171e-10 0.0000000000000000e+00  2.0926951677302573e-04 9.3541231469093829e-10 0.0000000000000000e+00  2.0926951678050133e-04 9.3542681367238083e-10 0.0000000000000000e+00  2.0926951676704508e-04 9.3542968772970976e-10 0.0000000000000000e+00  2.0926951678855367e-04 9.3542861760861299e-10 0.0000000000000000e+00  2.0926951677612514e-04 9.3542825644731681e-10 0.0000000000000000e+00  2.0926951678201309e-04 -8.9041622647085612e-11 0.0000000000000000e+00  -2.1456786067794469e-04 2.9633559106459310e-09 0.0000000000000000e+00  -2.1456786067985750e-04 2.9633705745345240e-09 0.0000000000000000e+00  -2.1456786069519093e-04 2.9633665042769382e-09 0.0000000000000000e+00  -2.1456786066160821e-04 2.9633665473739745e-09 0.0000000000000000e+00  -2.1456786068956452e-04 2.9633636384053356e-09 0.0000000000000000e+00  -2.1456786068198557e-04 2.9633492353757854e-09 0.0000000000000000e+00  -2.1456786070261935e-04 2.9633494705934467e-09 0.0000000000000000e+00  -2.1456786067834552e-04 2.9633908419052050e-09 0.0000000000000000e+00  -2.1456786067521527e-04 2.9633855298024508e-09 0.0000000000000000e+00  -2.1456786068074475e-04 2.9633716192717374e-09 0.0000000000000000e+00  -2.1456786069766481e-04 2.9633594123478976e-09 0.0000000000000000e+00  -2.1456786067348922e-04 2.9633740670749822e-09 0.0000000000000000e+00  -2.1456786068009591e-04 2.9633825840251482e-09 0.0000000000000000e+00  -2.1456786067478235e-04 2.9633805302209729e-09 0.0000000000000000e+00  -2.1456786070691631e-04 2.9633751524155670e-09 0.0000000000000000e+00  -2.1456786066377303e-04 2.9633858204770533e-09 0.0000000000000000e+00  -2.1456786067769983e-04 2.9633731376968800e-09 0.0000000000000000e+00  -2.1456786068459687e-04 2.9633694076619359e-09 0.0000000000000000e+00  -2.1456786068564475e-04 2.9633787467083991e-09 0.0000000000000000e+00  -2.1456786067990818e-04 2.9633651122155588e-09 0.0000000000000000e+00  -2.1456786067362333e-04 2.9633622060658456e-09 0.0000000000000000e+00  -2.1456786068640234e-04 2.9634040840794892e-09 0.0000000000000000e+00  -2.1456786068232953e-04 2.9633785605508861e-09 0.0000000000000000e+00  -2.1456786068283992e-04 2.9633661676321636e-09 0.0000000000000000e+00  -2.1456786067799885e-04 2.9633782708520656e-09 0.0000000000000000e+00  -2.1456786068547735e-04 2.9633866863751183e-09 0.0000000000000000e+00  -2.1456786067891608e-04 2.9633558920518638e-09 0.0000000000000000e+00  -2.1456786068723322e-04 2.9633736020606705e-09 0.0000000000000000e+00  -2.1456786068641925e-04 2.9633617800828120e-09 0.0000000000000000e+00  -2.1456786070091980e-04 2.9633601062914981e-09 0.0000000000000000e+00  -2.1456786067794486e-04 -8.7042844773856987e-10 0.0000000000000000e+00  -6.0130462623451855e-04 4.1019984495715631e-09 0.0000000000000000e+00  -6.0130462623667882e-04 4.1020146987263625e-09 0.0