<?xml version="1.0"?>
<VTKFile type="UnstructuredGrid"  version="0.1"  >
<UnstructuredGrid>
<Piece  NumberOfPoints="961" NumberOfCells="1800">
<Points>
<DataArray  type="Float64"  NumberOfComponents="3"  format="ascii">0 0 0  0.03333333333333333 0 0  0.06666666666666667 0 0  0.1 0 0  0.1333333333333333 0 0  0.1666666666666667 0 0  0.2 0 0  0.2333333333333333 0 0  0.2666666666666667 0 0  0.3 0 0  0.3333333333333333 0 0  0.3666666666666666 0 0  0.4 0 0  0.4333333333333333 0 0  0.4666666666666667 0 0  0.5 0 0  0.5333333333333333 0 0  0.5666666666666667 0 0  0.6 0 0  0.6333333333333333 0 0  0.6666666666666666 0 0  0.7 0 0  0.7333333333333333 0 0  0.7666666666666667 0 0  0.8 0 0  0.8333333333333334 0 0  0.8666666666666667 0 0  0.9 0 0  0.9333333333333333 0 0  0.9666666666666667 0 0  1 0 0  0 0.03333333333333333 0  0.03333333333333333 0.03333333333333333 0  0.06666666666666667 0.03333333333333333 0  0.1 0.03333333333333333 0  0.1333333333333333 0.03333333333333333 0  0.1666666666666667 0.03333333333333333 0  0.2 0.03333333333333333 0  0.2333333333333333 0.03333333333333333 0  0.2666666666666667 0.03333333333333333 0  0.3 0.03333333333333333 0  0.3333333333333333 0.03333333333333333 0  0.3666666666666666 0.03333333333333333 0  0.4 0.03333333333333333 0  0.4333333333333333 0.03333333333333333 0  0.4666666666666667 0.03333333333333333 0  0.5 0.03333333333333333 0  0.5333333333333333 0.03333333333333333 0  0.5666666666666667 0.03333333333333333 0  0.6 0.03333333333333333 0  0.6333333333333333 0.03333333333333333 0  0.6666666666666666 0.03333333333333333 0  0.7 0.03333333333333333 0  0.7333333333333333 0.03333333333333333 0  0.7666666666666667 0.03333333333333333 0  0.8 0.03333333333333333 0  0.8333333333333334 0.03333333333333333 0  0.8666666666666667 0.03333333333333333 0  0.9 0.03333333333333333 0  0.9333333333333333 0.03333333333333333 0  0.9666666666666667 0.03333333333333333 0  1 0.03333333333333333 0  0 0.06666666666666667 0  0.03333333333333333 0.06666666666666667 0  0.06666666666666667 0.06666666666666667 0  0.1 0.06666666666666667 0  0.1333333333333333 0.06666666666666667 0  0.1666666666666667 0.06666666666666667 0  0.2 0.06666666666666667 0  0.2333333333333333 0.06666666666666667 0  0.2666666666666667 0.06666666666666667 0  0.3 0.06666666666666667 0  0.3333333333333333 0.06666666666666667 0  0.3666666666666666 0.06666666666666667 0  0.4 0.06666666666666667 0  0.4333333333333333 0.06666666666666667 0  0.4666666666666667 0.06666666666666667 0  0.5 0.06666666666666667 0  0.5333333333333333 0.06666666666666667 0  0.5666666666666667 0.06666666666666667 0  0.6 0.06666666666666667 0  0.6333333333333333 0.06666666666666667 0  0.6666666666666666 0.06666666666666667 0  0.7 0.06666666666666667 0  0.7333333333333333 0.06666666666666667 0  0.7666666666666667 0.06666666666666667 0  0.8 0.06666666666666667 0  0.8333333333333334 0.06666666666666667 0  0.8666666666666667 0.06666666666666667 0  0.9 0.06666666666666667 0  0.9333333333333333 0.06666666666666667 0  0.9666666666666667 0.06666666666666667 0  1 0.06666666666666667 0  0 0.1 0  0.03333333333333333 0.1 0  0.06666666666666667 0.1 0  0.1 0.1 0  0.1333333333333333 0.1 0  0.1666666666666667 0.1 0  0.2 0.1 0  0.2333333333333333 0.1 0  0.2666666666666667 0.1 0  0.3 0.1 0  0.3333333333333333 0.1 0  0.3666666666666666 0.1 0  0.4 0.1 0  0.4333333333333333 0.1 0  0.4666666666666667 0.1 0  0.5 0.1 0  0.5333333333333333 0.1 0  0.5666666666666667 0.1 0  0.6 0.1 0  0.6333333333333333 0.1 0  0.6666666666666666 0.1 0  0.7 0.1 0  0.7333333333333333 0.1 0  0.7666666666666667 0.1 0  0.8 0.1 0  0.8333333333333334 0.1 0  0.8666666666666667 0.1 0  0.9 0.1 0  0.9333333333333333 0.1 0  0.9666666666666667 0.1 0  1 0.1 0  0 0.1333333333333333 0  0.03333333333333333 0.1333333333333333 0  0.06666666666666667 0.1333333333333333 0  0.1 0.1333333333333333 0  0.1333333333333333 0.1333333333333333 0  0.1666666666666667 0.1333333333333333 0  0.2 0.1333333333333333 0  0.2333333333333333 0.1333333333333333 0  0.2666666666666667 0.1333333333333333 0  0.3 0.1333333333333333 0  0.3333333333333333 0.1333333333333333 0  0.3666666666666666 0.1333333333333333 0  0.4 0.1333333333333333 0  0.4333333333333333 0.1333333333333333 0  0.4666666666666667 0.1333333333333333 0  0.5 0.1333333333333333 0  0.5333333333333333 0.1333333333333333 0  0.5666666666666667 0.1333333333333333 0  0.6 0.1333333333333333 0  0.6333333333333333 0.1333333333333333 0  0.6666666666666666 0.1333333333333333 0  0.7 0.1333333333333333 0  0.7333333333333333 0.1333333333333333 0  0.7666666666666667 0.1333333333333333 0  0.8 0.1333333333333333 0  0.8333333333333334 0.1333333333333333 0  0.8666666666666667 0.1333333333333333 0  0.9 0.1333333333333333 0  0.9333333333333333 0.1333333333333333 0  0.9666666666666667 0.1333333333333333 0  1 0.1333333333333333 0  0 0.1666666666666667 0  0.03333333333333333 0.1666666666666667 0  0.06666666666666667 0.1666666666666667 0  0.1 0.1666666666666667 0  0.1333333333333333 0.1666666666666667 0  0.1666666666666667 0.1666666666666667 0  0.2 0.1666666666666667 0  0.2333333333333333 0.1666666666666667 0  0.2666666666666667 0.1666666666666667 0  0.3 0.1666666666666667 0  0.3333333333333333 0.1666666666666667 0  0.3666666666666666 0.1666666666666667 0  0.4 0.1666666666666667 0  0.4333333333333333 0.1666666666666667 0  0.4666666666666667 0.1666666666666667 0  0.5 0.1666666666666667 0  0.5333333333333333 0.1666666666666667 0  0.5666666666666667 0.1666666666666667 0  0.6 0.1666666666666667 0  0.6333333333333333 0.1666666666666667 0  0.6666666666666666 0.1666666666666667 0  0.7 0.1666666666666667 0  0.7333333333333333 0.1666666666666667 0  0.7666666666666667 0.1666666666666667 0  0.8 0.1666666666666667 0  0.8333333333333334 0.1666666666666667 0  0.8666666666666667 0.1666666666666667 0  0.9 0.1666666666666667 0  0.9333333333333333 0.1666666666666667 0  0.9666666666666667 0.1666666666666667 0  1 0.1666666666666667 0  0 0.2 0  0.03333333333333333 0.2 0  0.06666666666666667 0.2 0  0.1 0.2 0  0.1333333333333333 0.2 0  0.1666666666666667 0.2 0  0.2 0.2 0  0.2333333333333333 0.2 0  0.2666666666666667 0.2 0  0.3 0.2 0  0.3333333333333333 0.2 0  0.3666666666666666 0.2 0  0.4 0.2 0  0.4333333333333333 0.2 0  0.4666666666666667 0.2 0  0.5 0.2 0  0.5333333333333333 0.2 0  0.5666666666666667 0.2 0  0.6 0.2 0  0.6333333333333333 0.2 0  0.6666666666666666 0.2 0  0.7 0.2 0  0.7333333333333333 0.2 0  0.7666666666666667 0.2 0  0.8 0.2 0  0.8333333333333334 0.2 0  0.8666666666666667 0.2 0  0.9 0.2 0  0.9333333333333333 0.2 0  0.9666666666666667 0.2 0  1 0.2 0  0 0.2333333333333333 0  0.03333333333333333 0.2333333333333333 0  0.06666666666666667 0.2333333333333333 0  0.1 0.2333333333333333 0  0.1333333333333333 0.2333333333333333 0  0.1666666666666667 0.2333333333333333 0  0.2 0.2333333333333333 0  0.2333333333333333 0.2333333333333333 0  0.2666666666666667 0.2333333333333333 0  0.3 0.2333333333333333 0  0.3333333333333333 0.2333333333333333 0  0.3666666666666666 0.2333333333333333 0  0.4 0.2333333333333333 0  0.4333333333333333 0.2333333333333333 0  0.4666666666666667 0.2333333333333333 0  0.5 0.2333333333333333 0  0.5333333333333333 0.2333333333333333 0  0.5666666666666667 0.2333333333333333 0  0.6 0.2333333333333333 0  0.6333333333333333 0.2333333333333333 0  0.6666666666666666 0.2333333333333333 0  0.7 0.2333333333333333 0  0.7333333333333333 0.2333333333333333 0  0.7666666666666667 0.2333333333333333 0  0.8 0.2333333333333333 0  0.8333333333333334 0.2333333333333333 0  0.8666666666666667 0.2333333333333333 0  0.9 0.2333333333333333 0  0.9333333333333333 0.2333333333333333 0  0.9666666666666667 0.2333333333333333 0  1 0.2333333333333333 0  0 0.2666666666666667 0  0.03333333333333333 0.2666666666666667 0  0.06666666666666667 0.2666666666666667 0  0.1 0.2666666666666667 0  0.1333333333333333 0.2666666666666667 0  0.1666666666666667 0.2666666666666667 0  0.2 0.2666666666666667 0  0.2333333333333333 0.2666666666666667 0  0.2666666666666667 0.2666666666666667 0  0.3 0.2666666666666667 0  0.3333333333333333 0.2666666666666667 0  0.3666666666666666 0.2666666666666667 0  0.4 0.2666666666666667 0  0.4333333333333333 0.2666666666666667 0  0.4666666666666667 0.2666666666666667 0  0.5 0.2666666666666667 0  0.5333333333333333 0.2666666666666667 0  0.5666666666666667 0.2666666666666667 0  0.6 0.2666666666666667 0  0.6333333333333333 0.2666666666666667 0  0.6666666666666666 0.2666666666666667 0  0.7 0.2666666666666667 0  0.7333333333333333 0.2666666666666667 0  0.7666666666666667 0.2666666666666667 0  0.8 0.2666666666666667 0  0.8333333333333334 0.2666666666666667 0  0.8666666666666667 0.2666666666666667 0  0.9 0.2666666666666667 0  0.9333333333333333 0.2666666666666667 0  0.9666666666666667 0.2666666666666667 0  1 0.2666666666666667 0  0 0.3 0  0.03333333333333333 0.3 0  0.06666666666666667 0.3 0  0.1 0.3 0  0.1333333333333333 0.3 0  0.1666666666666667 0.3 0  0.2 0.3 0  0.2333333333333333 0.3 0  0.2666666666666667 0.3 0  0.3 0.3 0  0.3333333333333333 0.3 0  0.3666666666666666 0.3 0  0.4 0.3 0  0.4333333333333333 0.3 0  0.4666666666666667 0.3 0  0.5 0.3 0  0.5333333333333333 0.3 0  0.5666666666666667 0.3 0  0.6 0.3 0  0.6333333333333333 0.3 0  0.6666666666666666 0.3 0  0.7 0.3 0  0.7333333333333333 0.3 0  0.7666666666666667 0.3 0  0.8 0.3 0  0.8333333333333334 0.3 0  0.8666666666666667 0.3 0  0.9 0.3 0  0.9333333333333333 0.3 0  0.9666666666666667 0.3 0  1 0.3 0  0 0.3333333333333333 0  0.03333333333333333 0.3333333333333333 0  0.06666666666666667 0.3333333333333333 0  0.1 0.3333333333333333 0  0.1333333333333333 0.3333333333333333 0  0.1666666666666667 0.3333333333333333 0  0.2 0.3333333333333333 0  0.2333333333333333 0.3333333333333333 0  0.2666666666666667 0.3333333333333333 0  0.3 0.3333333333333333 0  0.3333333333333333 0.3333333333333333 0  0.3666666666666666 0.3333333333333333 0  0.4 0.3333333333333333 0  0.4333333333333333 0.3333333333333333 0  0.4666666666666667 0.3333333333333333 0  0.5 0.3333333333333333 0  0.5333333333333333 0.33333333333333
[...]
<PointData  Vectors="u_f"> 
<DataArray  type="Float64"  Name="u_f"  NumberOfComponents="3" format="ascii">2.7091367521488749e-06 9.9245673278961638e-10 0.0000000000000000e+00  2.7091367627877171e-06 9.9246118799318356e-10 0.0000000000000000e+00  2.7091367422225703e-06 9.9244235290778249e-10 0.0000000000000000e+00  2.7091367743279108e-06 9.9244606944440955e-10 0.0000000000000000e+00  2.7091367521698542e-06 9.9240955123841568e-10 0.0000000000000000e+00  2.7091367542423066e-06 9.9241551733192032e-10 0.0000000000000000e+00  2.7091367513810971e-06 9.9241984443700082e-10 0.0000000000000000e+00  2.7091367536857315e-06 9.9244187634671757e-10 0.0000000000000000e+00  2.7091367559893900e-06 9.9246492724384613e-10 0.0000000000000000e+00  2.7091367681122882e-06 9.9244096301480747e-10 0.0000000000000000e+00  2.7091367434385573e-06 9.9247468766548372e-10 0.0000000000000000e+00  2.7091367408324063e-06 9.9235213037347780e-10 0.0000000000000000e+00  2.7091366897977090e-06 9.9243053467042153e-10 0.0000000000000000e+00  2.7091367722864123e-06 9.9246080798032210e-10 0.0000000000000000e+00  2.7091367569665814e-06 9.9243163188302008e-10 0.0000000000000000e+00  2.7091367401322285e-06 9.9245187475073202e-10 0.0000000000000000e+00  2.7091367671002397e-06 9.9243607591930488e-10 0.0000000000000000e+00  2.7091367689051652e-06 9.9247651508824544e-10 0.0000000000000000e+00  2.7091367699618287e-06 9.9246110418435562e-10 0.0000000000000000e+00  2.7091367628266942e-06 9.9241415969395994e-10 0.0000000000000000e+00  2.7091367556513900e-06 9.9243883196122734e-10 0.0000000000000000e+00  2.7091367695327557e-06 9.9240634389733892e-10 0.0000000000000000e+00  2.7091367867902185e-06 9.9259972908150723e-10 0.0000000000000000e+00  2.7091368489758809e-06 9.9248847871711773e-10 0.0000000000000000e+00  2.7091367446310170e-06 9.9246682492290864e-10 0.0000000000000000e+00  2.7091367664440805e-06 9.9245105189549321e-10 0.0000000000000000e+00  2.7091367602065028e-06 9.9246705797216561e-10 0.0000000000000000e+00  2.7091367705139044e-06 9.9244879073765238e-10 0.0000000000000000e+00  2.7091367659058826e-06 9.9246013235973832e-10 0.0000000000000000e+00  2.7091367611485661e-06 9.9246673184415213e-10 0.0000000000000000e+00  2.7091367521489291e-06 -2.9197331316869353e-10 0.0000000000000000e+00  4.1705125469545666e-04 9.9751259260028730e-10 0.0000000000000000e+00  4.1705125470916889e-04 9.9752151840309250e-10 0.0000000000000000e+00  4.1705125471072028e-04 9.9753085815428716e-10 0.0000000000000000e+00  4.1705125469837490e-04 9.9749624402414860e-10 0.0000000000000000e+00  4.1705125471459944e-04 9.9751719547219037e-10 0.0000000000000000e+00  4.1705125468985817e-04 9.9753970155772725e-10 0.0000000000000000e+00  4.1705125471785368e-04 9.9753186288444040e-10 0.0000000000000000e+00  4.1705125470269762e-04 9.9753700427956254e-10 0.0000000000000000e+00  4.1705125471978833e-04 9.9750506390040156e-10 0.0000000000000000e+00  4.1705125470020883e-04 9.9748709097256805e-10 0.0000000000000000e+00  4.1705125471043242e-04 9.9751472045547102e-10 0.0000000000000000e+00  4.1705125461802077e-04 9.9739862614682540e-10 0.0000000000000000e+00  4.1705125465001818e-04 9.9747842201725750e-10 0.0000000000000000e+00  4.1705125469299130e-04 9.9749118220946592e-10 0.0000000000000000e+00  4.1705125468932333e-04 9.9750680252700535e-10 0.0000000000000000e+00  4.1705125470274575e-04 9.9749261552473795e-10 0.0000000000000000e+00  4.1705125472428419e-04 9.9754868883479564e-10 0.0000000000000000e+00  4.1705125470384839e-04 9.9750675905049824e-10 0.0000000000000000e+00  4.1705125471230278e-04 9.9751762579203263e-10 0.0000000000000000e+00  4.1705125469935643e-04 9.9753264903943567e-10 0.0000000000000000e+00  4.1705125470709416e-04 9.9751541553748380e-10 0.0000000000000000e+00  4.1705125470359772e-04 9.9748866653516510e-10 0.0000000000000000e+00  4.1705125477982982e-04 9.9760076935351272e-10 0.0000000000000000e+00  4.1705125476535669e-04 9.9753793333240415e-10 0.0000000000000000e+00  4.1705125471842451e-04 9.9751239592601321e-10 0.0000000000000000e+00  4.1705125469299336e-04 9.9753265044889849e-10 0.0000000000000000e+00  4.1705125470186690e-04 9.9751770656509448e-10 0.0000000000000000e+00  4.1705125470321576e-04 9.9752254026364007e-10 0.0000000000000000e+00  4.1705125471600110e-04 9.9751408446247664e-10 0.0000000000000000e+00  4.1705125471680016e-04 9.9751787082172361e-10 0.0000000000000000e+00  4.1705125469545710e-04 -4.0956971018947152e-10 0.0000000000000000e+00  7.5928135867378143e-04 5.8216714044975748e-10 0.0000000000000000e+00  7.5928135869807655e-04 5.8217581482607889e-10 0.0000000000000000e+00  7.5928135868762181e-04 5.8218637181105259e-10 0.0000000000000000e+00  7.5928135867554900e-04 5.8216994202817118e-10 0.0000000000000000e+00  7.5928135868682405e-04 5.8216725233942168e-10 0.0000000000000000e+00  7.5928135869020709e-04 5.8216322268520720e-10 0.0000000000000000e+00  7.5928135870430486e-04 5.8215417707806194e-10 0.0000000000000000e+00  7.5928135867608633e-04 5.8216286056168159e-10 0.0000000000000000e+00  7.5928135867885235e-04 5.8215581758436913e-10 0.0000000000000000e+00  7.5928135869224366e-04 5.8216896787251921e-10 0.0000000000000000e+00  7.5928135868621495e-04 5.8217064957850895e-10 0.0000000000000000e+00  7.5928135861684021e-04 5.8206739764459642e-10 0.0000000000000000e+00  7.5928135862901439e-04 5.8216219605417008e-10 0.0000000000000000e+00  7.5928135866520853e-04 5.8217005001470756e-10 0.0000000000000000e+00  7.5928135868338974e-04 5.8216833393950895e-10 0.0000000000000000e+00  7.5928135869607111e-04 5.8216133584816643e-10 0.0000000000000000e+00  7.5928135868561582e-04 5.8215561895853113e-10 0.0000000000000000e+00  7.5928135868789666e-04 5.8217752309502185e-10 0.0000000000000000e+00  7.5928135867893291e-04 5.8217436134464645e-10 0.0000000000000000e+00  7.5928135868400567e-04 5.8216028232891542e-10 0.0000000000000000e+00  7.5928135870204311e-04 5.8216592440860082e-10 0.0000000000000000e+00  7.5928135867981664e-04 5.8213940417294052e-10 0.0000000000000000e+00  7.5928135875923987e-04 5.8226950041054271e-10 0.0000000000000000e+00  7.5928135875239964e-04 5.8215908190027005e-10 0.0000000000000000e+00  7.5928135867362129e-04 5.8216997921630570e-10 0.0000000000000000e+00  7.5928135869637598e-04 5.8215676691179136e-10 0.0000000000000000e+00  7.5928135867981794e-04 5.8216701869385351e-10 0.0000000000000000e+00  7.5928135867844176e-04 5.8216897437773224e-10 0.0000000000000000e+00  7.5928135870848327e-04 5.8216680044395619e-10 0.0000000000000000e+00  7.5928135870087456e-04 5.8216687818125196e-10 0.0000000000000000e+00  7.5928135867378186e-04 -3.1803043743751387e-10 0.0000000000000000e+00  9.7022490966714781e-04 2.5492096346162174e-10 0.0000000000000000e+00  9.7022490966380804e-04 2.5493922554617465e-10 0.0000000000000000e+00  9.7022490971241109e-04 2.5492077741252894e-10 0.0000000000000000e+00  9.7022490967430181e-04 2.5492388300123181e-10 0.0000000000000000e+00  9.7022490968066304e-04 2.5492894232224950e-10 0.0000000000000000e+00  9.7022490967811474e-04 2.5494936305332783e-10 0.0000000000000000e+00  9.7022490969391156e-04 2.5492704019795809e-10 0.0000000000000000e+00  9.7022490968100565e-04 2.5493156262205996e-10 0.0000000000000000e+00  9.7022490968379140e-04 2.5493924072500507e-10 0.0000000000000000e+00  9.7022490969130471e-04 2.5495987179130486e-10 0.0000000000000000e+00  9.7022490968960294e-04 2.5492482755816448e-10 0.0000000000000000e+00  9.7022490963331984e-04 2.5495747982447192e-10 0.0000000000000000e+00  9.7022490972286236e-04 2.5490400653964407e-10 0.0000000000000000e+00  9.7022490966862645e-04 2.5493162507210509e-10 0.0000000000000000e+00  9.7022490966820686e-04 2.5492455238765310e-10 0.0000000000000000e+00  9.7022490970285883e-04 2.5493310695963445e-10 0.0000000000000000e+00  9.7022490966674471e-04 2.5492845421443144e-10 0.0000000000000000e+00  9.7022490968281454e-04 2.5494034964698709e-10 0.0000000000000000e+00  9.7022490968314066e-04 2.5492599936387250e-10 0.0000000000000000e+00  9.7022490968603809e-04 2.5491178503971035e-10 0.0000000000000000e+00  9.7022490965929949e-04 2.5493193558760729e-10 0.0000000000000000e+00  9.7022490970365529e-04 2.5493006642306193e-10 0.0000000000000000e+00  9.7022490970905028e-04 2.5489640086140408e-10 0.0000000000000000e+00  9.7022490968026254e-04 2.5494974230724776e-10 0.0000000000000000e+00  9.7022490967125477e-04 2.5492630424152340e-10 0.0000000000000000e+00  9.7022490968311659e-04 2.5492994000508862e-10 0.0000000000000000e+00  9.7022490967886370e-04 2.5493921383679119e-10 0.0000000000000000e+00  9.7022490968502219e-04 2.5492224585595136e-10 0.0000000000000000e+00  9.7022490966935026e-04 2.5491036928851352e-10 0.0000000000000000e+00  9.7022490968649627e-04 2.5491905157951078e-10 0.0000000000000000e+00  9.7022490966714803e-04 -1.6819142863793946e-10 0.0000000000000000e+00  1.0134079241859977e-03 3.1767036917651481e-10 0.0000000000000000e+00  1.0134079242022725e-03 3.1768485780382660e-10 0.0000000000000000e+00  1.0134079241828002e-03 3.1767243295535014e-10 0.0000000000000000e+00  1.0134079241934410e-03 3.1767296291337205e-10 0.0000000000000000e+00  1.0134079242041117e-03 3.1766669275536813e-10 0.0000000000000000e+00  1.0134079242009194e-03 3.1766723637433741e-10 0.0000000000000000e+00  1.0134079242123690e-03 3.1765636312758999e-10 0.0000000000000000e+00  1.0134079241853589e-03 3.1763469838293895e-10 0.0000000000000000e+00  1.0134079241904312e-03 3.1765186542329765e-10 0.0000000000000000e+00  1.0134079241780401e-03 3.1763051780778206e-10 0.0000000000000000e+00  1.0134079241852292e-03 3.1766029704675264e-10 0.0000000000000000e+00  1.0134079242087495e-03 3.1770204078195724e-10 0.0000000000000000e+00  1.0134079241988646e-03 3.1767408376157796e-10 0.0000000000000000e+00  1.0134079242002593e-03 3.1766245981324631e-10 0.0000000000000000e+00  1.0134079241904501e-03 3.1768761926675992e-10 0.0000000000000000e+00  1.0134079242309511e-03 3.1765862466490158e-10 0.0000000000000000e+00  1.0134079241890552e-03 3.1766428246551848e-10 0.0000000000000000e+00  1.0134079241869809e-03 3.1763769880403109e-10 0.0000000000000000e+00  1.0134079241980267e-03 3.1767643582977095e-10 0.0000000000000000e+00  1.0134079242018195e-03 3.1765649572551569e-10 0.0000000000000000e+00  1.0134079241873872e-03 3.1766130470425175e-10 0.0000000000000000e+00  1.0134079241889962e-03 3.1765005393830786e-10 0.0000000000000000e+00  1.0134079241828362e-03 3.1769027881468903e-10 0.0000000000000000e+00  1.0134079242060611e-03 3.1767054145624002e-10 0.0000000000000000e+00  1.0134079241947641e-03 3.1765992928537573e-10 0.0000000000000000e+00  1.0134079241869882e-03 3.1765931844587175e-10 0.0000000000000000e+00  1.0134079241831688e-03 3.1766545275334346e-10 0.0000000000000000e+00  1.0134079241991385e-03 3.1768042471798374e-10 0.0000000000000000e+00  1.0134079241971002e-03 3.1767337241653260e-10 0.0000000000000000e+00  1.0134079241846780e-03 3.1763600766548244e-10 0.0000000000000000e+00  1.0134079241859982e-03 -9.9093162371395222e-11 0.0000000000000000e+00  8.8136360912834848e-04 6.5148564418627403e-10 0.0000000000000000e+00  8.8136360913376028e-04 6.5149049143734677e-10 0.0000000000000000e+00  8.8136360911858990e-04 6.5150275408917824e-10 0.0000000000000000e+00  8.8136360913097409e-04 6.5151478840803217e-10 0.0000000000000000e+00  8.8136360913265135e-04 6.5147712701926763e-10 0.0000000000000000e+00  8.8136360911525815e-04 6.5150194028702757e-10 0.0000000000000000e+00  8.8136360914603366e-04 6.5148806163185802e-10 0.0000000000000000e+00  8.8136360912204146e-04 6.5146149314920104e-10 0.0000000000000000e+00  8.8136360911449736e-04 6.5146855401584935e-10 0.0000000000000000e+00  8.8136360911144132e-04 6.5148050268273167e-10 0.0000000000000000e+00  8.8136360913744862e-04 6.5147583280713434e-10 0.0000000000000000e+00  8.8136360911382321e-04 6.5149491172960400e-10 0.0000000000000000e+00  8.8136360914578809e-04 6.5149071109670692e-10 0.0000000000000000e+00  8.8136360912449273e-04 6.5148993708477598e-10 0.0000000000000000e+00  8.8136360913459348e-04 6.5148736459828133e-10 0.0000000000000000e+00  8.8136360913405453e-04 6.5149557667079638e-10 0.0000000000000000e+00  8.8136360912872448e-04 6.5147122397211932e-10 0.0000000000000000e+00  8.8136360911349567e-04 6.5149254946991059e-10 0.0000000000000000e+00  8.8136360912153384e-04 6.5149009429409099e-10 0.0000000000000000e+00  8.8136360914329789e-04 6.5147743710108896e-10 0.0000000000000000e+00  8.8136360912129217e-04 6.5149676300481352e-10 0.0000000000000000e+00  8.8136360912421702e-04 6.5148096954018714e-10 0.0000000000000000e+00  8.8136360911332035e-04 6.5149291538814380e-10 0.0000000000000000e+00  8.8136360914339298e-04 6.5148263758522951e-10 0.0000000000000000e+00  8.8136360913855906e-04 6.5149973664611199e-10 0.0000000000000000e+00  8.8136360911746244e-04 6.5148076646912023e-10 0.0000000000000000e+00  8.8136360914112385e-04 6.5146852322450766e-10 0.0000000000000000e+00  8.8136360911694625e-04 6.5146385746887858e-10 0.0000000000000000e+00  8.8136360913799766e-04 6.5150712548391748e-10 0.0000000000000000e+00  8.8136360912731480e-04 6.5148579922718469e-10 0.0000000000000000e+00  8.8136360912834870e-04 -1.3928293353695480e-10 0.0000000000000000e+00  5.9692347538941486e-04 8.0950766614051525e-10 0.0000000000000000e+00  5.9692347540908890e-04 8.0947916718168006e-10 0.0000000000000000e+00  5.9692347538135523e-04 8.0946354924938541e-10 0.0000000000000000e+00  5.9692347536887259e-04 8.0947837430463132e-10 0.0000000000000000e+00  5.9692347538640826e-04 8.0948855447513998e-10 0.0000000000000000e+00  5.9692347537723765e-04 8.0948312685064430e-10 0.0000000000000000e+00  5.9692347537136062e-04 8.0946251302315905e-10 0.0000000000000000e+00  5.9692347538517617e-04 8.0946595981028560e-10 0.0000000000000000e+00  5.9692347539395756e-04 8.0945877968139832e-10 0.0000000000000000e+00  5.9692347537321970e-04 8.0947432361689470e-10 0.0000000000000000e+00  5.9692347537999835e-04 8.0948258035853926e-10 0.0000000000000000e+00  5.9692347538153662e-04 8.0945260048795667e-10 0.0000000000000000e+00  5.9692347538075859e-04 8.0947032833188909e-10 0.0000000000000000e+00  5.9692347537980666e-04 8.0949074201565330e-10 0.0000000000000000e+00  5.9692347538716850e-04 8.0948172719984973e-10 0.0000000000000000e+00  5.9692347539355239e-04 8.0947391378847350e-10 0.0000000000000000e+00  5.9692347538325649e-04 8.0949674421309029e-10 0.0000000000000000e+00  5.9692347537722052e-04 8.0946540654191698e-10 0.0000000000000000e+00  5.9692347537819478e-04 8.0949200456908316e-10 0.0000000000000000e+00  5.9692347540198434e-04 8.0950334006542682e-10 0.0000000000000000e+00  5.9692347538484940e-04 8.0948965385614288e-10 0.0000000000000000e+00  5.9692347538816857e-04 8.0948956500577485e-10 0.0000000000000000e+00  5.9692347538595940e-04 8.0948102913628098e-10 0.0000000000000000e+00  5.9692347539460938e-04 8.0948817077599114e-10 0.0000000000000000e+00  5.9692347538229567e-04 8.0949996705825811e-10 0.0000000000000000e+00  5.9692347539892256e-04 8.0949049910015655e-10 0.0000000000000000e+00  5.9692347537006381e-04 8.0950564578397693e-10 0.0000000000000000e+00  5.9692347539904496e-04 8.0950014996316461e-10 0.0000000000000000e+00  5.9692347537297001e-04 8.0948177566368684e-10 0.0000000000000000e+00  5.9692347539021229e-04 8.0948675773529974e-10 0.0000000000000000e+00  5.9692347538941497e-04 -1.9342697862669113e-10 0.0000000000000000e+00  2.0926966141634023e-04 3.5154301392364539e-10 0.0000000000000000e+00  2.0926966142192043e-04 3.5155856271094649e-10 0.0000000000000000e+00  2.0926966139737276e-04 3.5153064335304018e-10 0.0000000000000000e+00  2.0926966142082533e-04 3.5154168124944003e-10 0.0000000000000000e+00  2.0926966141398133e-04 3.5155595413407202e-10 0.0000000000000000e+00  2.0926966141246483e-04 3.5154286021088239e-10 0.0000000000000000e+00  2.0926966139345313e-04 3.5153158315303582e-10 0.0000000000000000e+00  2.0926966141541494e-04 3.5155507174258142e-10 0.0000000000000000e+00  2.0926966141129687e-04 3.5154186553670429e-10 0.0000000000000000e+00  2.0926966141974221e-04 3.5154580457872221e-10 0.0000000000000000e+00  2.0926966140857989e-04 3.5153053449914207e-10 0.0000000000000000e+00  2.0926966140540711e-04 3.5154442562263660e-10 0.0000000000000000e+00  2.0926966141138372e-04 3.5152454313017428e-10 0.0000000000000000e+00  2.0926966140213547e-04 3.5153425496600200e-10 0.0000000000000000e+00  2.0926966141521523e-04 3.5156567121472776e-10 0.0000000000000000e+00  2.0926966143958512e-04 3.5155304254979539e-10 0.0000000000000000e+00  2.0926966140899191e-04 3.5152679629202408e-10 0.0000000000000000e+00  2.0926966140599697e-04 3.5154719093448764e-10 0.0000000000000000e+00  2.0926966141243138e-04 3.5152350457291325e-10 0.0000000000000000e+00  2.0926966141513321e-04 3.5153424603488661e-10 0.0000000000000000e+00  2.0926966140080643e-04 3.5155479035146008e-10 0.0000000000000000e+00  2.0926966142472328e-04 3.5155216137803223e-10 0.0000000000000000e+00  2.0926966140171984e-04 3.5151479650500934e-10 0.0000000000000000e+00  2.0926966141080635e-04 3.5153494397648262e-10 0.0000000000000000e+00  2.0926966141735057e-04 3.5152762890508244e-10 0.0000000000000000e+00  2.0926966141552100e-04 3.5155327371525109e-10 0.0000000000000000e+00  2.0926966139343285e-04 3.5153878111704884e-10 0.0000000000000000e+00  2.0926966141289862e-04 3.5154359074630621e-10 0.0000000000000000e+00  2.0926966142048261e-04 3.5156164405417828e-10 0.0000000000000000e+00  2.0926966142342926e-04 3.5154101335379672e-10 0.0000000000000000e+00  2.0926966141634025e-04 -1.1886592350947647e-10 0.0000000000000000e+00  -2.1456900903271252e-04 -8.0710343345734986e-10 0.0000000000000000e+00  -2.1456900900966678e-04 -8.0711947195166722e-10 0.0000000000000000e+00  -2.1456900902160726e-04 -8.0712825512767664e-10 0.0000000000000000e+00  -2.1456900902118930e-04 -8.0710832591965320e-10 0.0000000000000000e+00  -2.1456900900568109e-04 -8.0710254533314027e-10 0.0000000000000000e+00  -2.1456900901697755e-04 -8.0711512739093175e-10 0.0000000000000000e+00  -2.1456900903168996e-04 -8.0708209814752893e-10 0.0000000000000000e+00  -2.1456900901777921e-04 -8.0708843221925092e-10 0.0000000000000000e+00  -2.1456900900034974e-04 -8.0710708488763647e-10 0.0000000000000000e+00  -2.1456900903135819e-04 -8.0709066762729015e-10 0.0000000000000000e+00  -2.1456900900104574e-04 -8.0710007476164983e-10 0.0000000000000000e+00  -2.1456900901692621e-04 -8.0710573836274835e-10 0.0000000000000000e+00  -2.1456900899364465e-04 -8.0708483180067653e-10 0.0000000000000000e+00  -2.1456900902243483e-04 -8.0710882655000635e-10 0.0000000000000000e+00  -2.1456900900421064e-04 -8.0711782656645026e-10 0.0000000000000000e+00  -2.1456900901247334e-04 -8.0710748056721932e-10 0.0000000000000000e+00  -2.1456900900724890e-04 -8.0712318832566396e-10 0.0000000000000000e+00  -2.1456900903049750e-04 -8.0711514414185531e-10 0.0000000000000000e+00  -2.1456900900532151e-04 -8.0711131983553230e-10 0.0000000000000000e+00  -2.1456900902312492e-04 -8.0710683633428842e-10 0.0000000000000000e+00  -2.1456900902007078e-04 -8.0709203193309390e-10 0.0000000000000000e+00  -2.1456900901202437e-04 -8.0708621621843057e-10 0.0000000000000000e+00  -2.1456900900653403e-04 -8.0709017865211036e-10 0.0000000000000000e+00  -2.1456900902662999e-04 -8.0710168279610195e-10 0.0000000000000000e+00  -2.1456900901097969e-04 -8.0707974607933594e-10 0.0000000000000000e+00  -2.1456900899856314e-04 -8.0710983800221306e-10 0.0000000000000000e+00  -2.1456900903391648e-04 -8.0709818320832960e-10 0.0000000000000000e+00  -2.1456900901433096e-04 -8.0710427880978375e-10 0.0000000000000000e+00  -2.1456900900627886e-04 -8.0709089297871170e-10 0.0000000000000000e+00  -2.1456900899965574e-04 -8.0711539475518748e-10 0.0000000000000000e+00  -2.1456900903271269e-04 1.6305094286812534e-10 0.0000000000000000e+00  -6.0130689041342400e-04 -2.2731373338540431e-09 0.0000000000000000e+00  -6.0130689041087721e-04 -2.2730955884925352e-09 0.0000000000000000e+00  -6.0130689038201423e-04 -2.2731111011487989e-09 0.0000000000000000e+00  -6.0130689042360162e-04 -2.2731053012092772e-09 0.0000000000000000e+00  -6.0130