<?xml version="1.0"?>
<VTKFile type="UnstructuredGrid"  version="0.1"  >
<UnstructuredGrid>
<Piece  NumberOfPoints="961" NumberOfCells="1800">
<Points>
<DataArray  type="Float64"  NumberOfComponents="3"  format="ascii">0 0 0  0.03333333333333333 0 0  0.06666666666666667 0 0  0.1 0 0  0.1333333333333333 0 0  0.1666666666666667 0 0  0.2 0 0  0.2333333333333333 0 0  0.2666666666666667 0 0  0.3 0 0  0.3333333333333333 0 0  0.3666666666666666 0 0  0.4 0 0  0.4333333333333333 0 0  0.4666666666666667 0 0  0.5 0 0  0.5333333333333333 0 0  0.5666666666666667 0 0  0.6 0 0  0.6333333333333333 0 0  0.6666666666666666 0 0  0.7 0 0  0.7333333333333333 0 0  0.7666666666666667 0 0  0.8 0 0  0.8333333333333334 0 0  0.8666666666666667 0 0  0.9 0 0  0.9333333333333333 0 0  0.9666666666666667 0 0  1 0 0  0 0.03333333333333333 0  0.03333333333333333 0.03333333333333333 0  0.06666666666666667 0.03333333333333333 0  0.1 0.03333333333333333 0  0.1333333333333333 0.03333333333333333 0  0.1666666666666667 0.03333333333333333 0  0.2 0.03333333333333333 0  0.2333333333333333 0.03333333333333333 0  0.2666666666666667 0.03333333333333333 0  0.3 0.03333333333333333 0  0.3333333333333333 0.03333333333333333 0  0.3666666666666666 0.03333333333333333 0  0.4 0.03333333333333333 0  0.4333333333333333 0.03333333333333333 0  0.4666666666666667 0.03333333333333333 0  0.5 0.03333333333333333 0  0.5333333333333333 0.03333333333333333 0  0.5666666666666667 0.03333333333333333 0  0.6 0.03333333333333333 0  0.6333333333333333 0.03333333333333333 0  0.6666666666666666 0.03333333333333333 0  0.7 0.03333333333333333 0  0.7333333333333333 0.03333333333333333 0  0.7666666666666667 0.03333333333333333 0  0.8 0.03333333333333333 0  0.8333333333333334 0.03333333333333333 0  0.8666666666666667 0.03333333333333333 0  0.9 0.03333333333333333 0  0.9333333333333333 0.03333333333333333 0  0.9666666666666667 0.03333333333333333 0  1 0.03333333333333333 0  0 0.06666666666666667 0  0.03333333333333333 0.06666666666666667 0  0.06666666666666667 0.06666666666666667 0  0.1 0.06666666666666667 0  0.1333333333333333 0.06666666666666667 0  0.1666666666666667 0.06666666666666667 0  0.2 0.06666666666666667 0  0.2333333333333333 0.06666666666666667 0  0.2666666666666667 0.06666666666666667 0  0.3 0.06666666666666667 0  0.3333333333333333 0.06666666666666667 0  0.3666666666666666 0.06666666666666667 0  0.4 0.06666666666666667 0  0.4333333333333333 0.06666666666666667 0  0.4666666666666667 0.06666666666666667 0  0.5 0.06666666666666667 0  0.5333333333333333 0.06666666666666667 0  0.5666666666666667 0.06666666666666667 0  0.6 0.06666666666666667 0  0.6333333333333333 0.06666666666666667 0  0.6666666666666666 0.06666666666666667 0  0.7 0.06666666666666667 0  0.7333333333333333 0.06666666666666667 0  0.7666666666666667 0.06666666666666667 0  0.8 0.06666666666666667 0  0.8333333333333334 0.06666666666666667 0  0.8666666666666667 0.06666666666666667 0  0.9 0.06666666666666667 0  0.9333333333333333 0.06666666666666667 0  0.9666666666666667 0.06666666666666667 0  1 0.06666666666666667 0  0 0.1 0  0.03333333333333333 0.1 0  0.06666666666666667 0.1 0  0.1 0.1 0  0.1333333333333333 0.1 0  0.1666666666666667 0.1 0  0.2 0.1 0  0.2333333333333333 0.1 0  0.2666666666666667 0.1 0  0.3 0.1 0  0.3333333333333333 0.1 0  0.3666666666666666 0.1 0  0.4 0.1 0  0.4333333333333333 0.1 0  0.4666666666666667 0.1 0  0.5 0.1 0  0.5333333333333333 0.1 0  0.5666666666666667 0.1 0  0.6 0.1 0  0.6333333333333333 0.1 0  0.6666666666666666 0.1 0  0.7 0.1 0  0.7333333333333333 0.1 0  0.7666666666666667 0.1 0  0.8 0.1 0  0.8333333333333334 0.1 0  0.8666666666666667 0.1 0  0.9 0.1 0  0.9333333333333333 0.1 0  0.9666666666666667 0.1 0  1 0.1 0  0 0.1333333333333333 0  0.03333333333333333 0.1333333333333333 0  0.06666666666666667 0.1333333333333333 0  0.1 0.1333333333333333 0  0.1333333333333333 0.1333333333333333 0  0.1666666666666667 0.1333333333333333 0  0.2 0.1333333333333333 0  0.2333333333333333 0.1333333333333333 0  0.2666666666666667 0.1333333333333333 0  0.3 0.1333333333333333 0  0.3333333333333333 0.1333333333333333 0  0.3666666666666666 0.1333333333333333 0  0.4 0.1333333333333333 0  0.4333333333333333 0.1333333333333333 0  0.4666666666666667 0.1333333333333333 0  0.5 0.1333333333333333 0  0.5333333333333333 0.1333333333333333 0  0.5666666666666667 0.1333333333333333 0  0.6 0.1333333333333333 0  0.6333333333333333 0.1333333333333333 0  0.6666666666666666 0.1333333333333333 0  0.7 0.1333333333333333 0  0.7333333333333333 0.1333333333333333 0  0.7666666666666667 0.1333333333333333 0  0.8 0.1333333333333333 0  0.8333333333333334 0.1333333333333333 0  0.8666666666666667 0.1333333333333333 0  0.9 0.1333333333333333 0  0.9333333333333333 0.1333333333333333 0  0.9666666666666667 0.1333333333333333 0  1 0.1333333333333333 0  0 0.1666666666666667 0  0.03333333333333333 0.1666666666666667 0  0.06666666666666667 0.1666666666666667 0  0.1 0.1666666666666667 0  0.1333333333333333 0.1666666666666667 0  0.1666666666666667 0.1666666666666667 0  0.2 0.1666666666666667 0  0.2333333333333333 0.1666666666666667 0  0.2666666666666667 0.1666666666666667 0  0.3 0.1666666666666667 0  0.3333333333333333 0.1666666666666667 0  0.3666666666666666 0.1666666666666667 0  0.4 0.1666666666666667 0  0.4333333333333333 0.1666666666666667 0  0.4666666666666667 0.1666666666666667 0  0.5 0.1666666666666667 0  0.5333333333333333 0.1666666666666667 0  0.5666666666666667 0.1666666666666667 0  0.6 0.1666666666666667 0  0.6333333333333333 0.1666666666666667 0  0.6666666666666666 0.1666666666666667 0  0.7 0.1666666666666667 0  0.7333333333333333 0.1666666666666667 0  0.7666666666666667 0.1666666666666667 0  0.8 0.1666666666666667 0  0.8333333333333334 0.1666666666666667 0  0.8666666666666667 0.1666666666666667 0  0.9 0.1666666666666667 0  0.9333333333333333 0.1666666666666667 0  0.9666666666666667 0.1666666666666667 0  1 0.1666666666666667 0  0 0.2 0  0.03333333333333333 0.2 0  0.06666666666666667 0.2 0  0.1 0.2 0  0.1333333333333333 0.2 0  0.1666666666666667 0.2 0  0.2 0.2 0  0.2333333333333333 0.2 0  0.2666666666666667 0.2 0  0.3 0.2 0  0.3333333333333333 0.2 0  0.3666666666666666 0.2 0  0.4 0.2 0  0.4333333333333333 0.2 0  0.4666666666666667 0.2 0  0.5 0.2 0  0.5333333333333333 0.2 0  0.5666666666666667 0.2 0  0.6 0.2 0  0.6333333333333333 0.2 0  0.6666666666666666 0.2 0  0.7 0.2 0  0.7333333333333333 0.2 0  0.7666666666666667 0.2 0  0.8 0.2 0  0.8333333333333334 0.2 0  0.8666666666666667 0.2 0  0.9 0.2 0  0.9333333333333333 0.2 0  0.9666666666666667 0.2 0  1 0.2 0  0 0.2333333333333333 0  0.03333333333333333 0.2333333333333333 0  0.06666666666666667 0.2333333333333333 0  0.1 0.2333333333333333 0  0.1333333333333333 0.2333333333333333 0  0.1666666666666667 0.2333333333333333 0  0.2 0.2333333333333333 0  0.2333333333333333 0.2333333333333333 0  0.2666666666666667 0.2333333333333333 0  0.3 0.2333333333333333 0  0.3333333333333333 0.2333333333333333 0  0.3666666666666666 0.2333333333333333 0  0.4 0.2333333333333333 0  0.4333333333333333 0.2333333333333333 0  0.4666666666666667 0.2333333333333333 0  0.5 0.2333333333333333 0  0.5333333333333333 0.2333333333333333 0  0.5666666666666667 0.2333333333333333 0  0.6 0.2333333333333333 0  0.6333333333333333 0.2333333333333333 0  0.6666666666666666 0.2333333333333333 0  0.7 0.2333333333333333 0  0.7333333333333333 0.2333333333333333 0  0.7666666666666667 0.2333333333333333 0  0.8 0.2333333333333333 0  0.8333333333333334 0.2333333333333333 0  0.8666666666666667 0.2333333333333333 0  0.9 0.2333333333333333 0  0.9333333333333333 0.2333333333333333 0  0.9666666666666667 0.2333333333333333 0  1 0.2333333333333333 0  0 0.2666666666666667 0  0.03333333333333333 0.2666666666666667 0  0.06666666666666667 0.2666666666666667 0  0.1 0.2666666666666667 0  0.1333333333333333 0.2666666666666667 0  0.1666666666666667 0.2666666666666667 0  0.2 0.2666666666666667 0  0.2333333333333333 0.2666666666666667 0  0.2666666666666667 0.2666666666666667 0  0.3 0.2666666666666667 0  0.3333333333333333 0.2666666666666667 0  0.3666666666666666 0.2666666666666667 0  0.4 0.2666666666666667 0  0.4333333333333333 0.2666666666666667 0  0.4666666666666667 0.2666666666666667 0  0.5 0.2666666666666667 0  0.5333333333333333 0.2666666666666667 0  0.5666666666666667 0.2666666666666667 0  0.6 0.2666666666666667 0  0.6333333333333333 0.2666666666666667 0  0.6666666666666666 0.2666666666666667 0  0.7 0.2666666666666667 0  0.7333333333333333 0.2666666666666667 0  0.7666666666666667 0.2666666666666667 0  0.8 0.2666666666666667 0  0.8333333333333334 0.2666666666666667 0  0.8666666666666667 0.2666666666666667 0  0.9 0.2666666666666667 0  0.9333333333333333 0.2666666666666667 0  0.9666666666666667 0.2666666666666667 0  1 0.2666666666666667 0  0 0.3 0  0.03333333333333333 0.3 0  0.06666666666666667 0.3 0  0.1 0.3 0  0.1333333333333333 0.3 0  0.1666666666666667 0.3 0  0.2 0.3 0  0.2333333333333333 0.3 0  0.2666666666666667 0.3 0  0.3 0.3 0  0.3333333333333333 0.3 0  0.3666666666666666 0.3 0  0.4 0.3 0  0.4333333333333333 0.3 0  0.4666666666666667 0.3 0  0.5 0.3 0  0.5333333333333333 0.3 0  0.5666666666666667 0.3 0  0.6 0.3 0  0.6333333333333333 0.3 0  0.6666666666666666 0.3 0  0.7 0.3 0  0.7333333333333333 0.3 0  0.7666666666666667 0.3 0  0.8 0.3 0  0.8333333333333334 0.3 0  0.8666666666666667 0.3 0  0.9 0.3 0  0.9333333333333333 0.3 0  0.9666666666666667 0.3 0  1 0.3 0  0 0.3333333333333333 0  0.03333333333333333 0.3333333333333333 0  0.06666666666666667 0.3333333333333333 0  0.1 0.3333333333333333 0  0.1333333333333333 0.3333333333333333 0  0.1666666666666667 0.3333333333333333 0  0.2 0.3333333333333333 0  0.2333333333333333 0.3333333333333333 0  0.2666666666666667 0.3333333333333333 0  0.3 0.3333333333333333 0  0.3333333333333333 0.3333333333333333 0  0.3666666666666666 0.3333333333333333 0  0.4 0.3333333333333333 0  0.4333333333333333 0.3333333333333333 0  0.4666666666666667 0.3333333333333333 0  0.5 0.3333333333333333 0  0.5333333333333333 0.33333333333333
[...]
<PointData  Vectors="u_f"> 
<DataArray  type="Float64"  Name="u_f"  NumberOfComponents="3" format="ascii">2.7094624688505319e-06 2.6014535392396634e-09 0.0000000000000000e+00  2.7094624683221460e-06 2.6014542234254444e-09 0.0000000000000000e+00  2.7094624699459014e-06 2.6014547803258903e-09 0.0000000000000000e+00  2.7094624700287886e-06 2.6014545149131985e-09 0.0000000000000000e+00  2.7094624697670080e-06 2.6014545263515314e-09 0.0000000000000000e+00  2.7094624691221788e-06 2.6014556204741537e-09 0.0000000000000000e+00  2.7094624702225898e-06 2.6014547208031910e-09 0.0000000000000000e+00  2.7094624697821868e-06 2.6014546820429633e-09 0.0000000000000000e+00  2.7094624698781929e-06 2.6014547211826618e-09 0.0000000000000000e+00  2.7094624698936970e-06 2.6014546295133681e-09 0.0000000000000000e+00  2.7094624696396142e-06 2.6014549808490821e-09 0.0000000000000000e+00  2.7094624676728715e-06 2.6014527279853879e-09 0.0000000000000000e+00  2.7094624690705707e-06 2.6014543760811103e-09 0.0000000000000000e+00  2.7094624698246333e-06 2.6014547969683936e-09 0.0000000000000000e+00  2.7094624698605204e-06 2.6014546947823389e-09 0.0000000000000000e+00  2.7094624698665920e-06 2.6014547109911614e-09 0.0000000000000000e+00  2.7094624698695735e-06 2.6014547073590841e-09 0.0000000000000000e+00  2.7094624698675678e-06 2.6014547065459324e-09 0.0000000000000000e+00  2.7094624698704951e-06 2.6014547028596451e-09 0.0000000000000000e+00  2.7094624698680556e-06 2.6014547044859483e-09 0.0000000000000000e+00  2.7094624698369933e-06 2.6014547662312620e-09 0.0000000000000000e+00  2.7094624702002552e-06 2.6014542632698742e-09 0.0000000000000000e+00  2.7094624691660347e-06 2.6014567109104887e-09 0.0000000000000000e+00  2.7094624720023076e-06 2.6014557554573242e-09 0.0000000000000000e+00  2.7094624697802353e-06 2.6014546736946066e-09 0.0000000000000000e+00  2.7094624698615504e-06 2.6014547050822595e-09 0.0000000000000000e+00  2.7094624698709830e-06 2.6014547030764855e-09 0.0000000000000000e+00  2.7094624698685977e-06 2.6014547064375122e-09 0.0000000000000000e+00  2.7094624698530937e-06 2.6014547161953318e-09 0.0000000000000000e+00  2.7094624698280486e-06 2.6014549593818791e-09 0.0000000000000000e+00  2.7094624688505861e-06 -6.1637649274659974e-10 0.0000000000000000e+00  4.1705301111360853e-04 5.5341851227554140e-09 0.0000000000000000e+00  4.1705301111372617e-04 5.5341865156299450e-09 0.0000000000000000e+00  4.1705301111527495e-04 5.5341853603041100e-09 0.0000000000000000e+00  4.1705301111378504e-04 5.5341867858131263e-09 0.0000000000000000e+00  4.1705301111437615e-04 5.5341842320833293e-09 0.0000000000000000e+00  4.1705301111437680e-04 5.5341874262513496e-09 0.0000000000000000e+00  4.1705301111553321e-04 5.5341876104572987e-09 0.0000000000000000e+00  4.1705301111452414e-04 5.5341840849570945e-09 0.0000000000000000e+00  4.1705301111396188e-04 5.5341838519620476e-09 0.0000000000000000e+00  4.1705301111409664e-04 5.5341839517086475e-09 0.0000000000000000e+00  4.1705301111388598e-04 5.5341839372887586e-09 0.0000000000000000e+00  4.1705301111350467e-04 5.5341835393865613e-09 0.0000000000000000e+00  4.1705301111148241e-04 5.5341829771193146e-09 0.0000000000000000e+00  4.1705301111417221e-04 5.5341839406497853e-09 0.0000000000000000e+00  4.1705301111403983e-04 5.5341838768986976e-09 0.0000000000000000e+00  4.1705301111402162e-04 5.5341838716945271e-09 0.0000000000000000e+00  4.1705301111402574e-04 5.5341838716945271e-09 0.0000000000000000e+00  4.1705301111402574e-04 5.5341838721282080e-09 0.0000000000000000e+00  4.1705301111402530e-04 5.5341838725618889e-09 0.0000000000000000e+00  4.1705301111402465e-04 5.5341838746218730e-09 0.0000000000000000e+00  4.1705301111403614e-04 5.5341838391684620e-09 0.0000000000000000e+00  4.1705301111387026e-04 5.5341840191460226e-09 0.0000000000000000e+00  4.1705301111536288e-04 5.5341891696484430e-09 0.0000000000000000e+00  4.1705301111622081e-04 5.5341848695942067e-09 0.0000000000000000e+00  4.1705301111395060e-04 5.5341838196528229e-09 0.0000000000000000e+00  4.1705301111402075e-04 5.5341838710440058e-09 0.0000000000000000e+00  4.1705301111402649e-04 5.5341838727787293e-09 0.0000000000000000e+00  4.1705301111402335e-04 5.5341838767902773e-09 0.0000000000000000e+00  4.1705301111404135e-04 5.5341838711524260e-09 0.0000000000000000e+00  4.1705301111399722e-04 5.5341839253625347e-09 0.0000000000000000e+00  4.1705301111360875e-04 -1.9798699971241355e-09 0.0000000000000000e+00  7.5928431174129677e-04 7.5238090592802398e-09 0.0000000000000000e+00  7.5928431174181914e-04 7.5238085216243825e-09 0.0000000000000000e+00  7.5928431174171387e-04 7.5238073706353562e-09 0.0000000000000000e+00  7.5928431174043093e-04 7.5238054428154733e-09 0.0000000000000000e+00  7.5928431174065211e-04 7.5238062534734376e-09 0.0000000000000000e+00  7.5928431173961127e-04 7.5238059150939396e-09 0.0000000000000000e+00  7.5928431174148998e-04 7.5238058278156647e-09 0.0000000000000000e+00  7.5928431174062869e-04 7.5238064616402547e-09 0.0000000000000000e+00  7.5928431174045923e-04 7.5238063691578094e-09 0.0000000000000000e+00  7.5928431174014232e-04 7.5238064749759415e-09 0.0000000000000000e+00  7.5928431174072117e-04 7.5238080413228201e-09 0.0000000000000000e+00  7.5928431173918236e-04 7.5238055947121976e-09 0.0000000000000000e+00  7.5928431174072822e-04 7.5238054480196437e-09 0.0000000000000000e+00  7.5928431174016259e-04 7.5238056760273606e-09 0.0000000000000000e+00  7.5928431174034582e-04 7.5238064115501144e-09 0.0000000000000000e+00  7.5928431174045760e-04 7.5238064716149147e-09 0.0000000000000000e+00  7.5928431174044763e-04 7.5238064685791486e-09 0.0000000000000000e+00  7.5928431174044915e-04 7.5238064692296699e-09 0.0000000000000000e+00  7.5928431174044915e-04 7.5238064685791486e-09 0.0000000000000000e+00  7.5928431174044709e-04 7.5238064712896541e-09 0.0000000000000000e+00  7.5928431174044882e-04 7.5238064797464310e-09 0.0000000000000000e+00  7.5928431174068095e-04 7.5238062268020642e-09 0.0000000000000000e+00  7.5928431174029161e-04 7.5238098850086144e-09 0.0000000000000000e+00  7.5928431174370815e-04 7.5238067370276066e-09 0.0000000000000000e+00  7.5928431174018699e-04 7.5238063085509080e-09 0.0000000000000000e+00  7.5928431174042920e-04 7.5238064602307919e-09 0.0000000000000000e+00  7.5928431174045294e-04 7.5238064715064945e-09 0.0000000000000000e+00  7.5928431174044427e-04 7.5238064283552480e-09 0.0000000000000000e+00  7.5928431174039656e-04 7.5238061065640433e-09 0.0000000000000000e+00  7.5928431174025366e-04 7.5238065561826842e-09 0.0000000000000000e+00  7.5928431174129721e-04 -3.0071613661453742e-09 0.0000000000000000e+00  9.7022846563475196e-04 8.2278892366872969e-09 0.0000000000000000e+00  9.7022846563580775e-04 8.2278885178612565e-09 0.0000000000000000e+00  9.7022846563580146e-04 8.2278877673765127e-09 0.0000000000000000e+00  9.7022846563596995e-04 8.2278905351278186e-09 0.0000000000000000e+00  9.7022846563576026e-04 8.2278900914722897e-09 0.0000000000000000e+00  9.7022846563404701e-04 8.2278913916475349e-09 0.0000000000000000e+00  9.7022846563683796e-04 8.2278907543534979e-09 0.0000000000000000e+00  9.7022846563549550e-04 8.2278905062880409e-09 0.0000000000000000e+00  9.7022846563564382e-04 8.2278903826889932e-09 0.0000000000000000e+00  9.7022846563506572e-04 8.2278907066486023e-09 0.0000000000000000e+00  9.7022846563615058e-04 8.2278916997777923e-09 0.0000000000000000e+00  9.7022846563352442e-04 8.2278900728240123e-09 0.0000000000000000e+00  9.7022846563750258e-04 8.2278914786005491e-09 0.0000000000000000e+00  9.7022846563512644e-04 8.2278929927973032e-09 0.0000000000000000e+00  9.7022846563561541e-04 8.2278904436211553e-09 0.0000000000000000e+00  9.7022846563553367e-04 8.2278904284423249e-09 0.0000000000000000e+00  9.7022846563558549e-04 8.2278904466569214e-09 0.0000000000000000e+00  9.7022846563557855e-04 8.2278904442716766e-09 0.0000000000000000e+00  9.7022846563557920e-04 8.2278904451390383e-09 0.0000000000000000e+00  9.7022846563557920e-04 8.2278904468737618e-09 0.0000000000000000e+00  9.7022846563558874e-04 8.2278904217202714e-09 0.0000000000000000e+00  9.7022846563550613e-04 8.2278906166598220e-09 0.0000000000000000e+00  9.7022846563570367e-04 8.2278916134752994e-09 0.0000000000000000e+00  9.7022846563671480e-04 8.2278906095040877e-09 0.0000000000000000e+00  9.7022846563539185e-04 8.2278904468737618e-09 0.0000000000000000e+00  9.7022846563555622e-04 8.2278904388506657e-09 0.0000000000000000e+00  9.7022846563557226e-04 8.2278904618357518e-09 0.0000000000000000e+00  9.7022846563567374e-04 8.2278903935310149e-09 0.0000000000000000e+00  9.7022846563513078e-04 8.2278905843505973e-09 0.0000000000000000e+00  9.7022846563551914e-04 8.2278929231915238e-09 0.0000000000000000e+00  9.7022846563475261e-04 -3.5227615080763938e-09 0.0000000000000000e+00  1.0134113084031228e-03 7.5151077659051796e-09 0.0000000000000000e+00  1.0134113084041610e-03 7.5151086874770262e-09 0.0000000000000000e+00  1.0134113084048165e-03 7.5151095228548001e-09 0.0000000000000000e+00  1.0134113084057702e-03 7.5151095751133448e-09 0.0000000000000000e+00  1.0134113084055536e-03 7.5151097198543348e-09 0.0000000000000000e+00  1.0134113084040441e-03 7.5151106245126276e-09 0.0000000000000000e+00  1.0134113084061818e-03 7.5151100164920492e-09 0.0000000000000000e+00  1.0134113084053209e-03 7.5151100810020785e-09 0.0000000000000000e+00  1.0134113084057992e-03 7.5151103152981680e-09 0.0000000000000000e+00  1.0134113084059601e-03 7.5151100025058412e-09 0.0000000000000000e+00  1.0134113084063643e-03 7.5151080097422482e-09 0.0000000000000000e+00  1.0134113084007690e-03 7.5151088225686169e-09 0.0000000000000000e+00  1.0134113084072595e-03 7.5151103760134896e-09 0.0000000000000000e+00  1.0134113084058988e-03 7.5151086714308341e-09 0.0000000000000000e+00  1.0134113084052810e-03 7.5151100883746533e-09 0.0000000000000000e+00  1.0134113084058452e-03 7.5151103310190995e-09 0.0000000000000000e+00  1.0134113084058058e-03 7.5151103125876625e-09 0.0000000000000000e+00  1.0134113084058058e-03 7.5151103125876625e-09 0.0000000000000000e+00  1.0134113084058058e-03 7.5151103125876625e-09 0.0000000000000000e+00  1.0134113084058051e-03 7.5151103116118806e-09 0.0000000000000000e+00  1.0134113084057984e-03 7.5151103364401103e-09 0.0000000000000000e+00  1.0134113084059814e-03 7.5151099832070425e-09 0.0000000000000000e+00  1.0134113084041276e-03 7.5151094593205528e-09 0.0000000000000000e+00  1.0134113084065088e-03 7.5151100233225229e-09 0.0000000000000000e+00  1.0134113084052238e-03 7.5151100627874820e-09 0.0000000000000000e+00  1.0134113084058164e-03 7.5151103176834128e-09 0.0000000000000000e+00  1.0134113084058084e-03 7.5151103152981680e-09 0.0000000000000000e+00  1.0134113084058105e-03 7.5151103078171730e-09 0.0000000000000000e+00  1.0134113084059476e-03 7.5151100014216390e-09 0.0000000000000000e+00  1.0134113084061507e-03 7.5151083505069910e-09 0.0000000000000000e+00  1.0134113084031230e-03 -3.4338563092883197e-09 0.0000000000000000e+00  8.8136612688210678e-04 5.4942976272136582e-09 0.0000000000000000e+00  8.8136612688205485e-04 5.4942970896662210e-09 0.0000000000000000e+00  8.8136612688101727e-04 5.4942957125126216e-09 0.0000000000000000e+00  8.8136612688078850e-04 5.4942944429118776e-09 0.0000000000000000e+00  8.8136612688068962e-04 5.4942940058699818e-09 0.0000000000000000e+00  8.8136612687955641e-04 5.4942961917299818e-09 0.0000000000000000e+00  8.8136612688406984e-04 5.4942959578675732e-09 0.0000000000000000e+00  8.8136612688088749e-04 5.4942953476785905e-09 0.0000000000000000e+00  8.8136612688104849e-04 5.4942945532836587e-09 0.0000000000000000e+00  8.8136612688076714e-04 5.4942943694029703e-09 0.0000000000000000e+00  8.8136612688042215e-04 5.4942952357889263e-09 0.0000000000000000e+00  8.8136612688274830e-04 5.4943002437187610e-09 0.0000000000000000e+00  8.8136612688156750e-04 5.4942950924573991e-09 0.0000000000000000e+00  8.8136612688067737e-04 5.4942945557773237e-09 0.0000000000000000e+00  8.8136612688087426e-04 5.4942945404900731e-09 0.0000000000000000e+00  8.8136612688088337e-04 5.4942945217333755e-09 0.0000000000000000e+00  8.8136612688088369e-04 5.4942945229259979e-09 0.0000000000000000e+00  8.8136612688088424e-04 5.4942945228175777e-09 0.0000000000000000e+00  8.8136612688088391e-04 5.4942945231428383e-09 0.0000000000000000e+00  8.8136612688088478e-04 5.4942945221670564e-09 0.0000000000000000e+00  8.8136612688088586e-04 5.4942945292143705e-09 0.0000000000000000e+00  8.8136612688082872e-04 5.4942943858828433e-09 0.0000000000000000e+00  8.8136612688140628e-04 5.4942955746021052e-09 0.0000000000000000e+00  8.8136612688110097e-04 5.4942946058674641e-09 0.0000000000000000e+00  8.8136612688061427e-04 5.4942944089763496e-09 0.0000000000000000e+00  8.8136612688088218e-04 5.4942945262870246e-09 0.0000000000000000e+00  8.8136612688088499e-04 5.4942945256365033e-09 0.0000000000000000e+00  8.8136612688090191e-04 5.4942944937609595e-09 0.0000000000000000e+00  8.8136612688077159e-04 5.4942944456223830e-09 0.0000000000000000e+00  8.8136612688054109e-04 5.4942947719672369e-09 0.0000000000000000e+00  8.8136612688210722e-04 -2.7487668575576904e-09 0.0000000000000000e+00  5.9692472653054100e-04 2.5051579526091938e-09 0.0000000000000000e+00  5.9692472653244703e-04 2.5051593018445874e-09 0.0000000000000000e+00  5.9692472653221956e-04 2.5051578352985188e-09 0.0000000000000000e+00  5.9692472653313658e-04 2.5051604941417165e-09 0.0000000000000000e+00  5.9692472653286727e-04 2.5051599492217046e-09 0.0000000000000000e+00  5.9692472652988636e-04 2.5051607364066919e-09 0.0000000000000000e+00  5.9692472653438428e-04 2.5051597717378089e-09 0.0000000000000000e+00  5.9692472653224667e-04 2.5051593531273501e-09 0.0000000000000000e+00  5.9692472653255784e-04 2.5051596716117383e-09 0.0000000000000000e+00  5.9692472653242730e-04 2.5051597910366076e-09 0.0000000000000000e+00  5.9692472653288938e-04 2.5051599336634034e-09 0.0000000000000000e+00  5.9692472653054989e-04 2.5051563497789121e-09 0.0000000000000000e+00  5.9692472653453152e-04 2.5051590523696675e-09 0.0000000000000000e+00  5.9692472653237200e-04 2.5051596916694785e-09 0.0000000000000000e+00  5.9692472653251013e-04 2.5051596806106163e-09 0.0000000000000000e+00  5.9692472653248378e-04 2.5051596750811853e-09 0.0000000000000000e+00  5.9692472653248519e-04 2.5051596757859167e-09 0.0000000000000000e+00  5.9692472653248530e-04 2.5051596761653874e-09 0.0000000000000000e+00  5.9692472653248541e-04 2.5051596761111773e-09 0.0000000000000000e+00  5.9692472653248715e-04 2.5051596671665094e-09 0.0000000000000000e+00  5.9692472653243608e-04 2.5051598036675629e-09 0.0000000000000000e+00  5.9692472653298067e-04 2.5051599729657321e-09 0.0000000000000000e+00  5.9692472653065268e-04 2.5051594535244713e-09 0.0000000000000000e+00  5.9692472653397944e-04 2.5051595973438895e-09 0.0000000000000000e+00  5.9692472653216210e-04 2.5051596181063611e-09 0.0000000000000000e+00  5.9692472653251794e-04 2.5051596847305846e-09 0.0000000000000000e+00  5.9692472653248487e-04 2.5051596752980257e-09 0.0000000000000000e+00  5.9692472653248563e-04 2.5051596706359563e-09 0.0000000000000000e+00  5.9692472653244746e-04 2.5051597814414184e-09 0.0000000000000000e+00  5.9692472653288396e-04 2.5051597534147922e-09 0.0000000000000000e+00  5.9692472653054122e-04 -1.5801928207783541e-09 0.0000000000000000e+00  2.0926960884354556e-04 -9.3404758603479136e-10 0.0000000000000000e+00  2.0926960884002656e-04 -9.3404895097756388e-10 0.0000000000000000e+00  2.0926960884489366e-04 -9.3404628129234446e-10 0.0000000000000000e+00  2.0926960884194007e-04 -9.3404692773433728e-10 0.0000000000000000e+00  2.0926960884446559e-04 -9.3404481924571486e-10 0.0000000000000000e+00  2.0926960884253047e-04 -9.3404692211003851e-10 0.0000000000000000e+00  2.0926960884288495e-04 -9.3404625684358547e-10 0.0000000000000000e+00  2.0926960884461125e-04 -9.3404584677121878e-10 0.0000000000000000e+00  2.0926960884361039e-04 -9.3404626913572760e-10 0.0000000000000000e+00  2.0926960884351547e-04 -9.3404605053346457e-10 0.0000000000000000e+00  2.0926960884395241e-04 -9.3404550973342094e-10 0.0000000000000000e+00  2.0926960884086883e-04 -9.3404669948267492e-10 0.0000000000000000e+00  2.0926960884356586e-04 -9.3404533096203522e-10 0.0000000000000000e+00  2.0926960884457013e-04 -9.3404585581075440e-10 0.0000000000000000e+00  2.0926960884360015e-04 -9.3404625365874159e-10 0.0000000000000000e+00  2.0926960884361771e-04 -9.3404624417197258e-10 0.0000000000000000e+00  2.0926960884362422e-04 -9.3404624186804296e-10 0.0000000000000000e+00  2.0926960884362324e-04 -9.3404624238303900e-10 0.0000000000000000e+00  2.0926960884362254e-04 -9.3404624097357617e-10 0.0000000000000000e+00  2.0926960884363037e-04 -9.3404625491912661e-10 0.0000000000000000e+00  2.0926960884358779e-04 -9.3404618321270543e-10 0.0000000000000000e+00  2.0926960884332007e-04 -9.3404503489352697e-10 0.0000000000000000e+00  2.0926960884372621e-04 -9.3404643333814662e-10 0.0000000000000000e+00  2.0926960884283026e-04 -9.3404621184919531e-10 0.0000000000000000e+00  2.0926960884461951e-04 -9.3404585914467608e-10 0.0000000000000000e+00  2.0926960884359928e-04 -9.3404625143612714e-10 0.0000000000000000e+00  2.0926960884361647e-04 -9.3404624350789875e-10 0.0000000000000000e+00  2.0926960884363129e-04 -9.3404625410597499e-10 0.0000000000000000e+00  2.0926960884357638e-04 -9.3404616479482103e-10 0.0000000000000000e+00  2.0926960884353428e-04 -9.3404517512152545e-10 0.0000000000000000e+00  2.0926960884354559e-04 -1.2951843986221845e-10 0.0000000000000000e+00  -2.1457012953073577e-04 -4.2170367225871468e-09 0.0000000000000000e+00  -2.1457012952775362e-04 -4.2170365185402979e-09 0.0000000000000000e+00  -2.1457012952810431e-04 -4.2170383782722844e-09 0.0000000000000000e+00  -2.1457012952840588e-04 -4.2170373469249678e-09 0.0000000000000000e+00  -2.1457012952829784e-04 -4.2170374799565744e-09 0.0000000000000000e+00  -2.1457012952841152e-04 -4.2170381347062663e-09 0.0000000000000000e+00  -2.1457012952785158e-04 -4.2170375895694140e-09 0.0000000000000000e+00  -2.1457012952830971e-04 -4.2170378393153844e-09 0.0000000000000000e+00  -2.1457012952826911e-04 -4.2170378214802587e-09 0.0000000000000000e+00  -2.1457012952832001e-04 -4.2170376978812110e-09 0.0000000000000000e+00  -2.1457012952821289e-04 -4.2170377038443230e-09 0.0000000000000000e+00  -2.1457012953045334e-04 -4.2170368085643790e-09 0.0000000000000000e+00  -2.1457012952540643e-04 -4.2170365909107929e-09 0.0000000000000000e+00  -2.1457012952783570e-04 -4.2170376596630844e-09 0.0000000000000000e+00  -2.1457012952830261e-04 -4.2170378197455352e-09 0.0000000000000000e+00  -2.1457012952826097e-04 -4.2170378039703936e-09 0.0000000000000000e+00  -2.1457012952826320e-04 -4.2170378054340665e-09 0.0000000000000000e+00  -2.1457012952826341e-04 -4.2170378053256463e-09 0.0000000000000000e+00  -2.1457012952826385e-04 -4.2170378047293351e-09 0.0000000000000000e+00  -2.1457012952825718e-04 -4.2170378132945323e-09 0.0000000000000000e+00  -2.1457012952831302e-04 -4.2170377094821743e-09 0.0000000000000000e+00  -2.1457012952820129e-04 -4.2170378265760089e-09 0.0000000000000000e+00  -2.1457012952953112e-04 -4.2170382996676269e-09 0.0000000000000000e+00  -2.1457012952734916e-04 -4.2170373888293818e-09 0.0000000000000000e+00  -2.1457012952832109e-04 -4.2170378471758502e-09 0.0000000000000000e+00  -2.1457012952827810e-04 -4.2170378110719178e-09 0.0000000000000000e+00  -2.1457012952826032e-04 -4.2170378032114521e-09 0.0000000000000000e+00  -2.1457012952825908e-04 -4.2170378112887583e-09 0.0000000000000000e+00  -2.1457012952830179e-04 -4.2170377321962098e-09 0.0000000000000000e+00  -2.1457012952821647e-04 -4.2170377100784855e-09 0.0000000000000000e+00  -2.1457012953073594e-04 1.3475503907214585e-09 0.0000000000000000e+00  -6.0130873985931796e-04 -6.7620267433414830e-09 0.0000000000000000e+00  -6.0130873985856303e-04 -6.7620267618813401e-09 0.0000000000000000e+00  -6.0130873985757315e-04 -6.7620260125892187e-09 0.0000000000000000e+00  -6.0130873985756589e-04 -6.7620265287778730e-09 0