<?xml version="1.0"?>
<VTKFile type="UnstructuredGrid"  version="0.1"  >
<UnstructuredGrid>
<Piece  NumberOfPoints="961" NumberOfCells="1800">
<Points>
<DataArray  type="Float64"  NumberOfComponents="3"  format="ascii">0 0 0  0.03333333333333333 0 0  0.06666666666666667 0 0  0.1 0 0  0.1333333333333333 0 0  0.1666666666666667 0 0  0.2 0 0  0.2333333333333333 0 0  0.2666666666666667 0 0  0.3 0 0  0.3333333333333333 0 0  0.3666666666666666 0 0  0.4 0 0  0.4333333333333333 0 0  0.4666666666666667 0 0  0.5 0 0  0.5333333333333333 0 0  0.5666666666666667 0 0  0.6 0 0  0.6333333333333333 0 0  0.6666666666666666 0 0  0.7 0 0  0.7333333333333333 0 0  0.7666666666666667 0 0  0.8 0 0  0.8333333333333334 0 0  0.8666666666666667 0 0  0.9 0 0  0.9333333333333333 0 0  0.9666666666666667 0 0  1 0 0  0 0.03333333333333333 0  0.03333333333333333 0.03333333333333333 0  0.06666666666666667 0.03333333333333333 0  0.1 0.03333333333333333 0  0.1333333333333333 0.03333333333333333 0  0.1666666666666667 0.03333333333333333 0  0.2 0.03333333333333333 0  0.2333333333333333 0.03333333333333333 0  0.2666666666666667 0.03333333333333333 0  0.3 0.03333333333333333 0  0.3333333333333333 0.03333333333333333 0  0.3666666666666666 0.03333333333333333 0  0.4 0.03333333333333333 0  0.4333333333333333 0.03333333333333333 0  0.4666666666666667 0.03333333333333333 0  0.5 0.03333333333333333 0  0.5333333333333333 0.03333333333333333 0  0.5666666666666667 0.03333333333333333 0  0.6 0.03333333333333333 0  0.6333333333333333 0.03333333333333333 0  0.6666666666666666 0.03333333333333333 0  0.7 0.03333333333333333 0  0.7333333333333333 0.03333333333333333 0  0.7666666666666667 0.03333333333333333 0  0.8 0.03333333333333333 0  0.8333333333333334 0.03333333333333333 0  0.8666666666666667 0.03333333333333333 0  0.9 0.03333333333333333 0  0.9333333333333333 0.03333333333333333 0  0.9666666666666667 0.03333333333333333 0  1 0.03333333333333333 0  0 0.06666666666666667 0  0.03333333333333333 0.06666666666666667 0  0.06666666666666667 0.06666666666666667 0  0.1 0.06666666666666667 0  0.1333333333333333 0.06666666666666667 0  0.1666666666666667 0.06666666666666667 0  0.2 0.06666666666666667 0  0.2333333333333333 0.06666666666666667 0  0.2666666666666667 0.06666666666666667 0  0.3 0.06666666666666667 0  0.3333333333333333 0.06666666666666667 0  0.3666666666666666 0.06666666666666667 0  0.4 0.06666666666666667 0  0.4333333333333333 0.06666666666666667 0  0.4666666666666667 0.06666666666666667 0  0.5 0.06666666666666667 0  0.5333333333333333 0.06666666666666667 0  0.5666666666666667 0.06666666666666667 0  0.6 0.06666666666666667 0  0.6333333333333333 0.06666666666666667 0  0.6666666666666666 0.06666666666666667 0  0.7 0.06666666666666667 0  0.7333333333333333 0.06666666666666667 0  0.7666666666666667 0.06666666666666667 0  0.8 0.06666666666666667 0  0.8333333333333334 0.06666666666666667 0  0.8666666666666667 0.06666666666666667 0  0.9 0.06666666666666667 0  0.9333333333333333 0.06666666666666667 0  0.9666666666666667 0.06666666666666667 0  1 0.06666666666666667 0  0 0.1 0  0.03333333333333333 0.1 0  0.06666666666666667 0.1 0  0.1 0.1 0  0.1333333333333333 0.1 0  0.1666666666666667 0.1 0  0.2 0.1 0  0.2333333333333333 0.1 0  0.2666666666666667 0.1 0  0.3 0.1 0  0.3333333333333333 0.1 0  0.3666666666666666 0.1 0  0.4 0.1 0  0.4333333333333333 0.1 0  0.4666666666666667 0.1 0  0.5 0.1 0  0.5333333333333333 0.1 0  0.5666666666666667 0.1 0  0.6 0.1 0  0.6333333333333333 0.1 0  0.6666666666666666 0.1 0  0.7 0.1 0  0.7333333333333333 0.1 0  0.7666666666666667 0.1 0  0.8 0.1 0  0.8333333333333334 0.1 0  0.8666666666666667 0.1 0  0.9 0.1 0  0.9333333333333333 0.1 0  0.9666666666666667 0.1 0  1 0.1 0  0 0.1333333333333333 0  0.03333333333333333 0.1333333333333333 0  0.06666666666666667 0.1333333333333333 0  0.1 0.1333333333333333 0  0.1333333333333333 0.1333333333333333 0  0.1666666666666667 0.1333333333333333 0  0.2 0.1333333333333333 0  0.2333333333333333 0.1333333333333333 0  0.2666666666666667 0.1333333333333333 0  0.3 0.1333333333333333 0  0.3333333333333333 0.1333333333333333 0  0.3666666666666666 0.1333333333333333 0  0.4 0.1333333333333333 0  0.4333333333333333 0.1333333333333333 0  0.4666666666666667 0.1333333333333333 0  0.5 0.1333333333333333 0  0.5333333333333333 0.1333333333333333 0  0.5666666666666667 0.1333333333333333 0  0.6 0.1333333333333333 0  0.6333333333333333 0.1333333333333333 0  0.6666666666666666 0.1333333333333333 0  0.7 0.1333333333333333 0  0.7333333333333333 0.1333333333333333 0  0.7666666666666667 0.1333333333333333 0  0.8 0.1333333333333333 0  0.8333333333333334 0.1333333333333333 0  0.8666666666666667 0.1333333333333333 0  0.9 0.1333333333333333 0  0.9333333333333333 0.1333333333333333 0  0.9666666666666667 0.1333333333333333 0  1 0.1333333333333333 0  0 0.1666666666666667 0  0.03333333333333333 0.1666666666666667 0  0.06666666666666667 0.1666666666666667 0  0.1 0.1666666666666667 0  0.1333333333333333 0.1666666666666667 0  0.1666666666666667 0.1666666666666667 0  0.2 0.1666666666666667 0  0.2333333333333333 0.1666666666666667 0  0.2666666666666667 0.1666666666666667 0  0.3 0.1666666666666667 0  0.3333333333333333 0.1666666666666667 0  0.3666666666666666 0.1666666666666667 0  0.4 0.1666666666666667 0  0.4333333333333333 0.1666666666666667 0  0.4666666666666667 0.1666666666666667 0  0.5 0.1666666666666667 0  0.5333333333333333 0.1666666666666667 0  0.5666666666666667 0.1666666666666667 0  0.6 0.1666666666666667 0  0.6333333333333333 0.1666666666666667 0  0.6666666666666666 0.1666666666666667 0  0.7 0.1666666666666667 0  0.7333333333333333 0.1666666666666667 0  0.7666666666666667 0.1666666666666667 0  0.8 0.1666666666666667 0  0.8333333333333334 0.1666666666666667 0  0.8666666666666667 0.1666666666666667 0  0.9 0.1666666666666667 0  0.9333333333333333 0.1666666666666667 0  0.9666666666666667 0.1666666666666667 0  1 0.1666666666666667 0  0 0.2 0  0.03333333333333333 0.2 0  0.06666666666666667 0.2 0  0.1 0.2 0  0.1333333333333333 0.2 0  0.1666666666666667 0.2 0  0.2 0.2 0  0.2333333333333333 0.2 0  0.2666666666666667 0.2 0  0.3 0.2 0  0.3333333333333333 0.2 0  0.3666666666666666 0.2 0  0.4 0.2 0  0.4333333333333333 0.2 0  0.4666666666666667 0.2 0  0.5 0.2 0  0.5333333333333333 0.2 0  0.5666666666666667 0.2 0  0.6 0.2 0  0.6333333333333333 0.2 0  0.6666666666666666 0.2 0  0.7 0.2 0  0.7333333333333333 0.2 0  0.7666666666666667 0.2 0  0.8 0.2 0  0.8333333333333334 0.2 0  0.8666666666666667 0.2 0  0.9 0.2 0  0.9333333333333333 0.2 0  0.9666666666666667 0.2 0  1 0.2 0  0 0.2333333333333333 0  0.03333333333333333 0.2333333333333333 0  0.06666666666666667 0.2333333333333333 0  0.1 0.2333333333333333 0  0.1333333333333333 0.2333333333333333 0  0.1666666666666667 0.2333333333333333 0  0.2 0.2333333333333333 0  0.2333333333333333 0.2333333333333333 0  0.2666666666666667 0.2333333333333333 0  0.3 0.2333333333333333 0  0.3333333333333333 0.2333333333333333 0  0.3666666666666666 0.2333333333333333 0  0.4 0.2333333333333333 0  0.4333333333333333 0.2333333333333333 0  0.4666666666666667 0.2333333333333333 0  0.5 0.2333333333333333 0  0.5333333333333333 0.2333333333333333 0  0.5666666666666667 0.2333333333333333 0  0.6 0.2333333333333333 0  0.6333333333333333 0.2333333333333333 0  0.6666666666666666 0.2333333333333333 0  0.7 0.2333333333333333 0  0.7333333333333333 0.2333333333333333 0  0.7666666666666667 0.2333333333333333 0  0.8 0.2333333333333333 0  0.8333333333333334 0.2333333333333333 0  0.8666666666666667 0.2333333333333333 0  0.9 0.2333333333333333 0  0.9333333333333333 0.2333333333333333 0  0.9666666666666667 0.2333333333333333 0  1 0.2333333333333333 0  0 0.2666666666666667 0  0.03333333333333333 0.2666666666666667 0  0.06666666666666667 0.2666666666666667 0  0.1 0.2666666666666667 0  0.1333333333333333 0.2666666666666667 0  0.1666666666666667 0.2666666666666667 0  0.2 0.2666666666666667 0  0.2333333333333333 0.2666666666666667 0  0.2666666666666667 0.2666666666666667 0  0.3 0.2666666666666667 0  0.3333333333333333 0.2666666666666667 0  0.3666666666666666 0.2666666666666667 0  0.4 0.2666666666666667 0  0.4333333333333333 0.2666666666666667 0  0.4666666666666667 0.2666666666666667 0  0.5 0.2666666666666667 0  0.5333333333333333 0.2666666666666667 0  0.5666666666666667 0.2666666666666667 0  0.6 0.2666666666666667 0  0.6333333333333333 0.2666666666666667 0  0.6666666666666666 0.2666666666666667 0  0.7 0.2666666666666667 0  0.7333333333333333 0.2666666666666667 0  0.7666666666666667 0.2666666666666667 0  0.8 0.2666666666666667 0  0.8333333333333334 0.2666666666666667 0  0.8666666666666667 0.2666666666666667 0  0.9 0.2666666666666667 0  0.9333333333333333 0.2666666666666667 0  0.9666666666666667 0.2666666666666667 0  1 0.2666666666666667 0  0 0.3 0  0.03333333333333333 0.3 0  0.06666666666666667 0.3 0  0.1 0.3 0  0.1333333333333333 0.3 0  0.1666666666666667 0.3 0  0.2 0.3 0  0.2333333333333333 0.3 0  0.2666666666666667 0.3 0  0.3 0.3 0  0.3333333333333333 0.3 0  0.3666666666666666 0.3 0  0.4 0.3 0  0.4333333333333333 0.3 0  0.4666666666666667 0.3 0  0.5 0.3 0  0.5333333333333333 0.3 0  0.5666666666666667 0.3 0  0.6 0.3 0  0.6333333333333333 0.3 0  0.6666666666666666 0.3 0  0.7 0.3 0  0.7333333333333333 0.3 0  0.7666666666666667 0.3 0  0.8 0.3 0  0.8333333333333334 0.3 0  0.8666666666666667 0.3 0  0.9 0.3 0  0.9333333333333333 0.3 0  0.9666666666666667 0.3 0  1 0.3 0  0 0.3333333333333333 0  0.03333333333333333 0.3333333333333333 0  0.06666666666666667 0.3333333333333333 0  0.1 0.3333333333333333 0  0.1333333333333333 0.3333333333333333 0  0.1666666666666667 0.3333333333333333 0  0.2 0.3333333333333333 0  0.2333333333333333 0.3333333333333333 0  0.2666666666666667 0.3333333333333333 0  0.3 0.3333333333333333 0  0.3333333333333333 0.3333333333333333 0  0.3666666666666666 0.3333333333333333 0  0.4 0.3333333333333333 0  0.4333333333333333 0.3333333333333333 0  0.4666666666666667 0.3333333333333333 0  0.5 0.3333333333333333 0  0.5333333333333333 0.33333333333333
[...]
<PointData  Vectors="u_f"> 
<DataArray  type="Float64"  Name="u_f"  NumberOfComponents="3" format="ascii">2.7086419358209892e-06 -9.8180952793789841e-10 0.0000000000000000e+00  2.7086419166982107e-06 -9.8181202702390599e-10 0.0000000000000000e+00  2.7086419352099871e-06 -9.8180276869629449e-10 0.0000000000000000e+00  2.7086419374846974e-06 -9.8180005320353328e-10 0.0000000000000000e+00  2.7086419329609181e-06 -9.8180594242710389e-10 0.0000000000000000e+00  2.7086419286096353e-06 -9.8181036456250481e-10 0.0000000000000000e+00  2.7086419285239833e-06 -9.8180839657293142e-10 0.0000000000000000e+00  2.7086419314305125e-06 -9.8179191897673421e-10 0.0000000000000000e+00  2.7086419395370379e-06 -9.8181128976642870e-10 0.0000000000000000e+00  2.7086419219257999e-06 -9.8181584710184053e-10 0.0000000000000000e+00  2.7086419277191800e-06 -9.8179752294671324e-10 0.0000000000000000e+00  2.7086419215779879e-06 -9.8186330273935044e-10 0.0000000000000000e+00  2.7086419086482265e-06 -9.8180857947783792e-10 0.0000000000000000e+00  2.7086419250082951e-06 -9.8181089327369422e-10 0.0000000000000000e+00  2.7086419351784368e-06 -9.8179572647792354e-10 0.0000000000000000e+00  2.7086419457177493e-06 -9.8181068743791178e-10 0.0000000000000000e+00  2.7086419289728430e-06 -9.8181046463436533e-10 0.0000000000000000e+00  2.7086419444337286e-06 -9.8180728927725266e-10 0.0000000000000000e+00  2.7086419270049076e-06 -9.8181430265584582e-10 0.0000000000000000e+00  2.7086419282009453e-06 -9.8180481285107049e-10 0.0000000000000000e+00  2.7086419275572002e-06 -9.8180421350410954e-10 0.0000000000000000e+00  2.7086419234501882e-06 -9.8181984076054288e-10 0.0000000000000000e+00  2.7086419481768824e-06 -9.8175633844298921e-10 0.0000000000000000e+00  2.7086419768212870e-06 -9.8178667577502807e-10 0.0000000000000000e+00  2.7086419321914056e-06 -9.8179592786847708e-10 0.0000000000000000e+00  2.7086419401255971e-06 -9.8179619333537901e-10 0.0000000000000000e+00  2.7086419315489074e-06 -9.8181045644863893e-10 0.0000000000000000e+00  2.7086419461112062e-06 -9.8181432645408351e-10 0.0000000000000000e+00  2.7086419219878163e-06 -9.8182453660278224e-10 0.0000000000000000e+00  2.7086419350294132e-06 -9.8179030720178459e-10 0.0000000000000000e+00  2.7086419358210434e-06 2.0376942264724582e-10 0.0000000000000000e+00  4.1704996114148493e-04 -3.2517085624605632e-09 0.0000000000000000e+00  4.1704996113812120e-04 -3.2517042536242893e-09 0.0000000000000000e+00  4.1704996115211510e-04 -3.2516920064765489e-09 0.0000000000000000e+00  4.1704996113907096e-04 -3.2516915504611152e-09 0.0000000000000000e+00  4.1704996114782979e-04 -3.2516907202875117e-09 0.0000000000000000e+00  4.1704996114756416e-04 -3.2517082379588530e-09 0.0000000000000000e+00  4.1704996114741671e-04 -3.2517081065535497e-09 0.0000000000000000e+00  4.1704996113482772e-04 -3.2517127346873634e-09 0.0000000000000000e+00  4.1704996114404246e-04 -3.2517034621567034e-09 0.0000000000000000e+00  4.1704996114316154e-04 -3.2517133227586217e-09 0.0000000000000000e+00  4.1704996112699251e-04 -3.2517082611607795e-09 0.0000000000000000e+00  4.1704996111282990e-04 -3.2517491211627933e-09 0.0000000000000000e+00  4.1704996111434248e-04 -3.2517368399711047e-09 0.0000000000000000e+00  4.1704996114196925e-04 -3.2517029762172897e-09 0.0000000000000000e+00  4.1704996113895061e-04 -3.2517139193950773e-09 0.0000000000000000e+00  4.1704996113944501e-04 -3.2516976374973722e-09 0.0000000000000000e+00  4.1704996114802528e-04 -3.2517105726798112e-09 0.0000000000000000e+00  4.1704996114720865e-04 -3.2517174856612832e-09 0.0000000000000000e+00  4.1704996113827776e-04 -3.2516906255282418e-09 0.0000000000000000e+00  4.1704996114831140e-04 -3.2517066414711540e-09 0.0000000000000000e+00  4.1704996114504090e-04 -3.2517093865626345e-09 0.0000000000000000e+00  4.1704996113360658e-04 -3.2516966967351471e-09 0.0000000000000000e+00  4.1704996118515248e-04 -3.2516546463875681e-09 0.0000000000000000e+00  4.1704996116865526e-04 -3.2516870715135204e-09 0.0000000000000000e+00  4.1704996115092042e-04 -3.2517092772750555e-09 0.0000000000000000e+00  4.1704996113717187e-04 -3.2516991704508239e-09 0.0000000000000000e+00  4.1704996114392233e-04 -3.2517036482057962e-09 0.0000000000000000e+00  4.1704996114470989e-04 -3.2516982589620574e-09 0.0000000000000000e+00  4.1704996114608575e-04 -3.2516844699704076e-09 0.0000000000000000e+00  4.1704996114043369e-04 -3.2517118561583430e-09 0.0000000000000000e+00  4.1704996114148515e-04 2.2068140125350680e-10 0.0000000000000000e+00  7.5927951417799030e-04 -5.0934230795725288e-09 0.0000000000000000e+00  7.5927951417545359e-04 -5.0934256104256601e-09 0.0000000000000000e+00  7.5927951417859246e-04 -5.0934298612571177e-09 0.0000000000000000e+00  7.5927951418650421e-04 -5.0934319943164719e-09 0.0000000000000000e+00  7.5927951417171981e-04 -5.0934315862227741e-09 0.0000000000000000e+00  7.5927951417199379e-04 -5.0934302555814479e-09 0.0000000000000000e+00  7.5927951417599786e-04 -5.0934254140766466e-09 0.0000000000000000e+00  7.5927951418553060e-04 -5.0934265638730505e-09 0.0000000000000000e+00  7.5927951416626097e-04 -5.0934540004763870e-09 0.0000000000000000e+00  7.5927951417227330e-04 -5.0934350646686041e-09 0.0000000000000000e+00  7.5927951417789608e-04 -5.0934270620639488e-09 0.0000000000000000e+00  7.5927951414002078e-04 -5.0934822988036102e-09 0.0000000000000000e+00  7.5927951414623521e-04 -5.0934307202704990e-09 0.0000000000000000e+00  7.5927951417158516e-04 -5.0934341563240240e-09 0.0000000000000000e+00  7.5927951417559627e-04 -5.0934257290373777e-09 0.0000000000000000e+00  7.5927951416522458e-04 -5.0934329019021105e-09 0.0000000000000000e+00  7.5927951417682912e-04 -5.0934265509710447e-09 0.0000000000000000e+00  7.5927951417395230e-04 -5.0934128224778760e-09 0.0000000000000000e+00  7.5927951416201740e-04 -5.0934291108807941e-09 0.0000000000000000e+00  7.5927951418352309e-04 -5.0934396865140452e-09 0.0000000000000000e+00  7.5927951417894982e-04 -5.0934459253386064e-09 0.0000000000000000e+00  7.5927951417142643e-04 -5.0934424008141840e-09 0.0000000000000000e+00  7.5927951420286493e-04 -5.0933807253230809e-09 0.0000000000000000e+00  7.5927951420128525e-04 -5.0934239878086887e-09 0.0000000000000000e+00  7.5927951417916091e-04 -5.0934385090704859e-09 0.0000000000000000e+00  7.5927951416472649e-04 -5.0934360353548092e-09 0.0000000000000000e+00  7.5927951418448825e-04 -5.0934285093654288e-09 0.0000000000000000e+00  7.5927951416276441e-04 -5.0934425039218106e-09 0.0000000000000000e+00  7.5927951418235638e-04 -5.0934395000312715e-09 0.0000000000000000e+00  7.5927951417075433e-04 -5.0934344986066499e-09 0.0000000000000000e+00  7.5927951417799073e-04 2.7112675123283027e-10 0.0000000000000000e+00  9.7022276773685539e-04 -5.9968755924608153e-09 0.0000000000000000e+00  9.7022276774782535e-04 -5.9968586459471784e-09 0.0000000000000000e+00  9.7022276774110286e-04 -5.9968762941564613e-09 0.0000000000000000e+00  9.7022276775195421e-04 -5.9968773620956012e-09 0.0000000000000000e+00  9.7022276774609041e-04 -5.9968601165590052e-09 0.0000000000000000e+00  9.7022276774980749e-04 -5.9968663546246248e-09 0.0000000000000000e+00  9.7022276775545532e-04 -5.9968487356888006e-09 0.0000000000000000e+00  9.7022276775101442e-04 -5.9968576079320185e-09 0.0000000000000000e+00  9.7022276776185298e-04 -5.9968594703745104e-09 0.0000000000000000e+00  9.7022276773080381e-04 -5.9968784315526241e-09 0.0000000000000000e+00  9.7022276775364036e-04 -5.9968590598955679e-09 0.0000000000000000e+00  9.7022276774577014e-04 -5.9968623053463510e-09 0.0000000000000000e+00  9.7022276774470957e-04 -5.9968643573073827e-09 0.0000000000000000e+00  9.7022276775386479e-04 -5.9968687385683617e-09 0.0000000000000000e+00  9.7022276774496393e-04 -5.9968694847162968e-09 0.0000000000000000e+00  9.7022276774848476e-04 -5.9968785440928096e-09 0.0000000000000000e+00  9.7022276774092180e-04 -5.9968789010121648e-09 0.0000000000000000e+00  9.7022276774881089e-04 -5.9968777656356498e-09 0.0000000000000000e+00  9.7022276774861292e-04 -5.9968647198645891e-09 0.0000000000000000e+00  9.7022276773581781e-04 -5.9968760816528355e-09 0.0000000000000000e+00  9.7022276774895184e-04 -5.9968581790897230e-09 0.0000000000000000e+00  9.7022276775695845e-04 -5.9968735686890401e-09 0.0000000000000000e+00  9.7022276776009744e-04 -5.9968810880647871e-09 0.0000000000000000e+00  9.7022276774139538e-04 -5.9968566067797324e-09 0.0000000000000000e+00  9.7022276775513136e-04 -5.9968622424626250e-09 0.0000000000000000e+00  9.7022276773968191e-04 -5.9968997389442391e-09 0.0000000000000000e+00  9.7022276774566996e-04 -5.9968723686940756e-09 0.0000000000000000e+00  9.7022276774503722e-04 -5.9968588356825586e-09 0.0000000000000000e+00  9.7022276775621881e-04 -5.9968566989369171e-09 0.0000000000000000e+00  9.7022276774015852e-04 -5.9968759233593183e-09 0.0000000000000000e+00  9.7022276773685561e-04 2.9091572719366551e-10 0.0000000000000000e+00  1.0134057558445371e-03 -5.6800222533216760e-09 0.0000000000000000e+00  1.0134057558551135e-03 -5.6800063011298516e-09 0.0000000000000000e+00  1.0134057558533836e-03 -5.6800233226702787e-09 0.0000000000000000e+00  1.0134057558486035e-03 -5.6800288525350393e-09 0.0000000000000000e+00  1.0134057558516699e-03 -5.6800233425111785e-09 0.0000000000000000e+00  1.0134057558686598e-03 -5.6800219479019240e-09 0.0000000000000000e+00  1.0134057558512932e-03 -5.6800242816471003e-09 0.0000000000000000e+00  1.0134057558535909e-03 -5.6800226839667789e-09 0.0000000000000000e+00  1.0134057558646257e-03 -5.6800224257098214e-09 0.0000000000000000e+00  1.0134057558572485e-03 -5.6800302628652252e-09 0.0000000000000000e+00  1.0134057558511332e-03 -5.6800220465643217e-09 0.0000000000000000e+00  1.0134057558610779e-03 -5.6800220285665656e-09 0.0000000000000000e+00  1.0134057558626227e-03 -5.6800333841748596e-09 0.0000000000000000e+00  1.0134057558499623e-03 -5.6800364715489660e-09 0.0000000000000000e+00  1.0134057558577251e-03 -5.6800249998226193e-09 0.0000000000000000e+00  1.0134057558508088e-03 -5.6800303934031668e-09 0.0000000000000000e+00  1.0134057558482206e-03 -5.6800212687576832e-09 0.0000000000000000e+00  1.0134057558434007e-03 -5.6800201563662542e-09 0.0000000000000000e+00  1.0134057558625837e-03 -5.6800260028180491e-09 0.0000000000000000e+00  1.0134057558571527e-03 -5.6800239932493224e-09 0.0000000000000000e+00  1.0134057558561643e-03 -5.6800231622083572e-09 0.0000000000000000e+00  1.0134057558512839e-03 -5.6800225402015708e-09 0.0000000000000000e+00  1.0134057558635200e-03 -5.6800308638384894e-09 0.0000000000000000e+00  1.0134057558515268e-03 -5.6800018375779276e-09 0.0000000000000000e+00  1.0134057558624069e-03 -5.6800308096283808e-09 0.0000000000000000e+00  1.0134057558511531e-03 -5.6800216136423942e-09 0.0000000000000000e+00  1.0134057558577338e-03 -5.6800315011325264e-09 0.0000000000000000e+00  1.0134057558515560e-03 -5.6800348451372870e-09 0.0000000000000000e+00  1.0134057558593913e-03 -5.6800297235830646e-09 0.0000000000000000e+00  1.0134057558472717e-03 -5.6800309295411411e-09 0.0000000000000000e+00  1.0134057558445373e-03 2.2006208080673834e-10 0.0000000000000000e+00  8.8136173406292589e-04 -4.2210088513653862e-09 0.0000000000000000e+00  8.8136173405435668e-04 -4.2210043097509059e-09 0.0000000000000000e+00  8.8136173404432152e-04 -4.2210058063835848e-09 0.0000000000000000e+00  8.8136173405299698e-04 -4.2209969962651514e-09 0.0000000000000000e+00  8.8136173405211563e-04 -4.2210136846302510e-09 0.0000000000000000e+00  8.8136173404837882e-04 -4.2210004294997508e-09 0.0000000000000000e+00  8.8136173404540724e-04 -4.2210014035469826e-09 0.0000000000000000e+00  8.8136173405912500e-04 -4.2210187413491834e-09 0.0000000000000000e+00  8.8136173404631754e-04 -4.2210069996564958e-09 0.0000000000000000e+00  8.8136173404992164e-04 -4.2210110985912291e-09 0.0000000000000000e+00  8.8136173405182171e-04 -4.2210114957344849e-09 0.0000000000000000e+00  8.8136173405691627e-04 -4.2209984214489071e-09 0.0000000000000000e+00  8.8136173406402289e-04 -4.2209996075660838e-09 0.0000000000000000e+00  8.8136173404518173e-04 -4.2210031736154494e-09 0.0000000000000000e+00  8.8136173405441447e-04 -4.2210008874667485e-09 0.0000000000000000e+00  8.8136173405706111e-04 -4.2209979792028410e-09 0.0000000000000000e+00  8.8136173405385545e-04 -4.2210210706491308e-09 0.0000000000000000e+00  8.8136173404830044e-04 -4.2210014581907720e-09 0.0000000000000000e+00  8.8136173405372719e-04 -4.2210152480497837e-09 0.0000000000000000e+00  8.8136173404312283e-04 -4.2209990746807161e-09 0.0000000000000000e+00  8.8136173404672151e-04 -4.2210009119697176e-09 0.0000000000000000e+00  8.8136173405734539e-04 -4.2210061372820878e-09 0.0000000000000000e+00  8.8136173404786437e-04 -4.2210144969145186e-09 0.0000000000000000e+00  8.8136173405744405e-04 -4.2210139512355652e-09 0.0000000000000000e+00  8.8136173405107437e-04 -4.2210046222179720e-09 0.0000000000000000e+00  8.8136173405097928e-04 -4.2210088120088474e-09 0.0000000000000000e+00  8.8136173405279207e-04 -4.2210190069787157e-09 0.0000000000000000e+00  8.8136173404289710e-04 -4.2210190297469613e-09 0.0000000000000000e+00  8.8136173404747471e-04 -4.2210227134322625e-09 0.0000000000000000e+00  8.8136173404058699e-04 -4.2210156230753151e-09 0.0000000000000000e+00  8.8136173406292632e-04 5.0506263599657059e-11 0.0000000000000000e+00  5.9692225622591500e-04 -2.0289103801977154e-09 0.0000000000000000e+00  5.9692225621253757e-04 -2.0289067654676723e-09 0.0000000000000000e+00  5.9692225622292282e-04 -2.0289125430726293e-09 0.0000000000000000e+00  5.9692225621839204e-04 -2.0288898264350305e-09 0.0000000000000000e+00  5.9692225621650868e-04 -2.0288981363025815e-09 0.0000000000000000e+00  5.9692225621398628e-04 -2.0288998042392037e-09 0.0000000000000000e+00  5.9692225620918446e-04 -2.0289005888221058e-09 0.0000000000000000e+00  5.9692225621192760e-04 -2.0288910333688889e-09 0.0000000000000000e+00  5.9692225622296380e-04 -2.0288942758381161e-09 0.0000000000000000e+00  5.9692225622045550e-04 -2.0288984954987613e-09 0.0000000000000000e+00  5.9692225620767883e-04 -2.0289017999301426e-09 0.0000000000000000e+00  5.9692225622705178e-04 -2.0289035533018959e-09 0.0000000000000000e+00  5.9692225622699356e-04 -2.0289182723763795e-09 0.0000000000000000e+00  5.9692225620533532e-04 -2.0289204117783163e-09 0.0000000000000000e+00  5.9692225620763340e-04 -2.0289099496610327e-09 0.0000000000000000e+00  5.9692225622241671e-04 -2.0288949124816318e-09 0.0000000000000000e+00  5.9692225621980986e-04 -2.0289233938221816e-09 0.0000000000000000e+00  5.9692225620284968e-04 -2.0289061333235957e-09 0.0000000000000000e+00  5.9692225622804632e-04 -2.0288986973229957e-09 0.0000000000000000e+00  5.9692225620660406e-04 -2.0289118266860438e-09 0.0000000000000000e+00  5.9692225621934820e-04 -2.0288880144079396e-09 0.0000000000000000e+00  5.9692225621895746e-04 -2.0288994375620290e-09 0.0000000000000000e+00  5.9692225621877878e-04 -2.0288953659491904e-09 0.0000000000000000e+00  5.9692225622736891e-04 -2.0289147553329522e-09 0.0000000000000000e+00  5.9692225619440635e-04 -2.0288870848672071e-09 0.0000000000000000e+00  5.9692225622388906e-04 -2.0289119224210957e-09 0.0000000000000000e+00  5.9692225621450984e-04 -2.0289010432112363e-09 0.0000000000000000e+00  5.9692225622091412e-04 -2.0289059015753813e-09 0.0000000000000000e+00  5.9692225620412904e-04 -2.0289161216987400e-09 0.0000000000000000e+00  5.9692225620862089e-04 -2.0289103499484748e-09 0.0000000000000000e+00  5.9692225622591522e-04 -1.5945446411312266e-10 0.0000000000000000e+00  2.0926942910848273e-04 3.3067797649687525e-10 0.0000000000000000e+00  2.0926942910794429e-04 3.3066941383403520e-10 0.0000000000000000e+00  2.0926942910447509e-04 3.3066101945292484e-10 0.0000000000000000e+00  2.0926942910199633e-04 3.3065394230969141e-10 0.0000000000000000e+00  2.0926942910217837e-04 3.3067939485015730e-10 0.0000000000000000e+00  2.0926942910801184e-04 3.3067200965798162e-10 0.0000000000000000e+00  2.0926942910006610e-04 3.3068049042290007e-10 0.0000000000000000e+00  2.0926942910572610e-04 3.3067433065022984e-10 0.0000000000000000e+00  2.0926942910583424e-04 3.3066545394823052e-10 0.0000000000000000e+00  2.0926942910564334e-04 3.3068213870835785e-10 0.0000000000000000e+00  2.0926942910957165e-04 3.3067759561665206e-10 0.0000000000000000e+00  2.0926942910574659e-04 3.3066884209357206e-10 0.0000000000000000e+00  2.0926942911013045e-04 3.3066902036351428e-10 0.0000000000000000e+00  2.0926942910390848e-04 3.3065533561790327e-10 0.0000000000000000e+00  2.0926942909845180e-04 3.3066223987154777e-10 0.0000000000000000e+00  2.0926942911202189e-04 3.3067752568561194e-10 0.0000000000000000e+00  2.0926942911250323e-04 3.3067898981933071e-10 0.0000000000000000e+00  2.0926942910284033e-04 3.3066785784128735e-10 0.0000000000000000e+00  2.0926942910528667e-04 3.3067280176253631e-10 0.0000000000000000e+00  2.0926942910931177e-04 3.3066140687901865e-10 0.0000000000000000e+00  2.0926942910459085e-04 3.3067111990746877e-10 0.0000000000000000e+00  2.0926942910522953e-04 3.3066792706759607e-10 0.0000000000000000e+00  2.0926942910397115e-04 3.3067147780260590e-10 0.0000000000000000e+00  2.0926942911488619e-04 3.3067800081010897e-10 0.0000000000000000e+00  2.0926942910807678e-04 3.3067905095478071e-10 0.0000000000000000e+00  2.0926942910449441e-04 3.3067732167942065e-10 0.0000000000000000e+00  2.0926942911839841e-04 3.3066853510172693e-10 0.0000000000000000e+00  2.0926942909835130e-04 3.3067250142498200e-10 0.0000000000000000e+00  2.0926942910146626e-04 3.3068753260061343e-10 0.0000000000000000e+00  2.0926942911127542e-04 3.3067818862103030e-10 0.0000000000000000e+00  2.0926942910848271e-04 -3.1475268055788516e-10 0.0000000000000000e+00  -2.1456807888376410e-04 2.3568186673637338e-09 0.0000000000000000e+00  -2.1456807886025892e-04 2.3568027946439286e-09 0.0000000000000000e+00  -2.1456807887533123e-04 2.3568101989858252e-09 0.0000000000000000e+00  -2.1456807886904497e-04 2.3567913019382700e-09 0.0000000000000000e+00  -2.1456807888115990e-04 2.3567957781211492e-09 0.0000000000000000e+00  -2.1456807887760263e-04 2.3568120240775522e-09 0.0000000000000000e+00  -2.1456807887675571e-04 2.3568124047409350e-09 0.0000000000000000e+00  -2.1456807887343355e-04 2.3568281914292978e-09 0.0000000000000000e+00  -2.1456807886853822e-04 2.3568310716123690e-09 0.0000000000000000e+00  -2.1456807886901402e-04 2.3568019970506005e-09 0.0000000000000000e+00  -2.1456807888621754e-04 2.3567977593379891e-09 0.0000000000000000e+00  -2.1456807886169918e-04 2.3568165118071846e-09 0.0000000000000000e+00  -2.1456807887843861e-04 2.3568039056258948e-09 0.0000000000000000e+00  -2.1456807886561309e-04 2.3568195548916322e-09 0.0000000000000000e+00  -2.1456807886931114e-04 2.3568011595586323e-09 0.0000000000000000e+00  -2.1456807887937118e-04 2.3567998030048741e-09 0.0000000000000000e+00  -2.1456807887063414e-04 2.3568008539220399e-09 0.0000000000000000e+00  -2.1456807887582834e-04 2.3568039347367231e-09 0.0000000000000000e+00  -2.1456807886912423e-04 2.3567992020316099e-09 0.0000000000000000e+00  -2.1456807888066138e-04 2.3568195398754321e-09 0.0000000000000000e+00  -2.1456807886843570e-04 2.3568008042113703e-09 0.0000000000000000e+00  -2.1456807888258698e-04 2.3568065642522520e-09 0.0000000000000000e+00  -2.1456807887674113e-04 2.3568146435100010e-09 0.0000000000000000e+00  -2.1456807887238784e-04 2.3568116838007004e-09 0.0000000000000000e+00  -2.1456807886396922e-04 2.3568126048304459e-09 0.0000000000000000e+00  -2.1456807887514437e-04 2.3568146469794479e-09 0.0000000000000000e+00  -2.1456807886827356e-04 2.3568224361046955e-09 0.0000000000000000e+00  -2.1456807887319026e-04 2.3568019540077742e-09 0.0000000000000000e+00  -2.1456807887595519e-04 2.3568073469920105e-09 0.0000000000000000e+00  -2.1456807886427296e-04 2.3568065188783911e-09 0.0000000000000000e+00  -2.1456807888376426e-04 -3.3858509664536055e-10 0.0000000000000000e+00  -6.0130488530504129e-04 3.7612019806185573e-09 0.0000000000000000e+00  -6.0130488529162873e-04 3.7612071511787179e-09 0.