<?xml version="1.0"?>
<VTKFile type="UnstructuredGrid"  version="0.1"  >
<UnstructuredGrid>
<Piece  NumberOfPoints="961" NumberOfCells="1800">
<Points>
<DataArray  type="Float64"  NumberOfComponents="3"  format="ascii">0 0 0  0.03333333333333333 0 0  0.06666666666666667 0 0  0.1 0 0  0.1333333333333333 0 0  0.1666666666666667 0 0  0.2 0 0  0.2333333333333333 0 0  0.2666666666666667 0 0  0.3 0 0  0.3333333333333333 0 0  0.3666666666666666 0 0  0.4 0 0  0.4333333333333333 0 0  0.4666666666666667 0 0  0.5 0 0  0.5333333333333333 0 0  0.5666666666666667 0 0  0.6 0 0  0.6333333333333333 0 0  0.6666666666666666 0 0  0.7 0 0  0.7333333333333333 0 0  0.7666666666666667 0 0  0.8 0 0  0.8333333333333334 0 0  0.8666666666666667 0 0  0.9 0 0  0.9333333333333333 0 0  0.9666666666666667 0 0  1 0 0  0 0.03333333333333333 0  0.03333333333333333 0.03333333333333333 0  0.06666666666666667 0.03333333333333333 0  0.1 0.03333333333333333 0  0.1333333333333333 0.03333333333333333 0  0.1666666666666667 0.03333333333333333 0  0.2 0.03333333333333333 0  0.2333333333333333 0.03333333333333333 0  0.2666666666666667 0.03333333333333333 0  0.3 0.03333333333333333 0  0.3333333333333333 0.03333333333333333 0  0.3666666666666666 0.03333333333333333 0  0.4 0.03333333333333333 0  0.4333333333333333 0.03333333333333333 0  0.4666666666666667 0.03333333333333333 0  0.5 0.03333333333333333 0  0.5333333333333333 0.03333333333333333 0  0.5666666666666667 0.03333333333333333 0  0.6 0.03333333333333333 0  0.6333333333333333 0.03333333333333333 0  0.6666666666666666 0.03333333333333333 0  0.7 0.03333333333333333 0  0.7333333333333333 0.03333333333333333 0  0.7666666666666667 0.03333333333333333 0  0.8 0.03333333333333333 0  0.8333333333333334 0.03333333333333333 0  0.8666666666666667 0.03333333333333333 0  0.9 0.03333333333333333 0  0.9333333333333333 0.03333333333333333 0  0.9666666666666667 0.03333333333333333 0  1 0.03333333333333333 0  0 0.06666666666666667 0  0.03333333333333333 0.06666666666666667 0  0.06666666666666667 0.06666666666666667 0  0.1 0.06666666666666667 0  0.1333333333333333 0.06666666666666667 0  0.1666666666666667 0.06666666666666667 0  0.2 0.06666666666666667 0  0.2333333333333333 0.06666666666666667 0  0.2666666666666667 0.06666666666666667 0  0.3 0.06666666666666667 0  0.3333333333333333 0.06666666666666667 0  0.3666666666666666 0.06666666666666667 0  0.4 0.06666666666666667 0  0.4333333333333333 0.06666666666666667 0  0.4666666666666667 0.06666666666666667 0  0.5 0.06666666666666667 0  0.5333333333333333 0.06666666666666667 0  0.5666666666666667 0.06666666666666667 0  0.6 0.06666666666666667 0  0.6333333333333333 0.06666666666666667 0  0.6666666666666666 0.06666666666666667 0  0.7 0.06666666666666667 0  0.7333333333333333 0.06666666666666667 0  0.7666666666666667 0.06666666666666667 0  0.8 0.06666666666666667 0  0.8333333333333334 0.06666666666666667 0  0.8666666666666667 0.06666666666666667 0  0.9 0.06666666666666667 0  0.9333333333333333 0.06666666666666667 0  0.9666666666666667 0.06666666666666667 0  1 0.06666666666666667 0  0 0.1 0  0.03333333333333333 0.1 0  0.06666666666666667 0.1 0  0.1 0.1 0  0.1333333333333333 0.1 0  0.1666666666666667 0.1 0  0.2 0.1 0  0.2333333333333333 0.1 0  0.2666666666666667 0.1 0  0.3 0.1 0  0.3333333333333333 0.1 0  0.3666666666666666 0.1 0  0.4 0.1 0  0.4333333333333333 0.1 0  0.4666666666666667 0.1 0  0.5 0.1 0  0.5333333333333333 0.1 0  0.5666666666666667 0.1 0  0.6 0.1 0  0.6333333333333333 0.1 0  0.6666666666666666 0.1 0  0.7 0.1 0  0.7333333333333333 0.1 0  0.7666666666666667 0.1 0  0.8 0.1 0  0.8333333333333334 0.1 0  0.8666666666666667 0.1 0  0.9 0.1 0  0.9333333333333333 0.1 0  0.9666666666666667 0.1 0  1 0.1 0  0 0.1333333333333333 0  0.03333333333333333 0.1333333333333333 0  0.06666666666666667 0.1333333333333333 0  0.1 0.1333333333333333 0  0.1333333333333333 0.1333333333333333 0  0.1666666666666667 0.1333333333333333 0  0.2 0.1333333333333333 0  0.2333333333333333 0.1333333333333333 0  0.2666666666666667 0.1333333333333333 0  0.3 0.1333333333333333 0  0.3333333333333333 0.1333333333333333 0  0.3666666666666666 0.1333333333333333 0  0.4 0.1333333333333333 0  0.4333333333333333 0.1333333333333333 0  0.4666666666666667 0.1333333333333333 0  0.5 0.1333333333333333 0  0.5333333333333333 0.1333333333333333 0  0.5666666666666667 0.1333333333333333 0  0.6 0.1333333333333333 0  0.6333333333333333 0.1333333333333333 0  0.6666666666666666 0.1333333333333333 0  0.7 0.1333333333333333 0  0.7333333333333333 0.1333333333333333 0  0.7666666666666667 0.1333333333333333 0  0.8 0.1333333333333333 0  0.8333333333333334 0.1333333333333333 0  0.8666666666666667 0.1333333333333333 0  0.9 0.1333333333333333 0  0.9333333333333333 0.1333333333333333 0  0.9666666666666667 0.1333333333333333 0  1 0.1333333333333333 0  0 0.1666666666666667 0  0.03333333333333333 0.1666666666666667 0  0.06666666666666667 0.1666666666666667 0  0.1 0.1666666666666667 0  0.1333333333333333 0.1666666666666667 0  0.1666666666666667 0.1666666666666667 0  0.2 0.1666666666666667 0  0.2333333333333333 0.1666666666666667 0  0.2666666666666667 0.1666666666666667 0  0.3 0.1666666666666667 0  0.3333333333333333 0.1666666666666667 0  0.3666666666666666 0.1666666666666667 0  0.4 0.1666666666666667 0  0.4333333333333333 0.1666666666666667 0  0.4666666666666667 0.1666666666666667 0  0.5 0.1666666666666667 0  0.5333333333333333 0.1666666666666667 0  0.5666666666666667 0.1666666666666667 0  0.6 0.1666666666666667 0  0.6333333333333333 0.1666666666666667 0  0.6666666666666666 0.1666666666666667 0  0.7 0.1666666666666667 0  0.7333333333333333 0.1666666666666667 0  0.7666666666666667 0.1666666666666667 0  0.8 0.1666666666666667 0  0.8333333333333334 0.1666666666666667 0  0.8666666666666667 0.1666666666666667 0  0.9 0.1666666666666667 0  0.9333333333333333 0.1666666666666667 0  0.9666666666666667 0.1666666666666667 0  1 0.1666666666666667 0  0 0.2 0  0.03333333333333333 0.2 0  0.06666666666666667 0.2 0  0.1 0.2 0  0.1333333333333333 0.2 0  0.1666666666666667 0.2 0  0.2 0.2 0  0.2333333333333333 0.2 0  0.2666666666666667 0.2 0  0.3 0.2 0  0.3333333333333333 0.2 0  0.3666666666666666 0.2 0  0.4 0.2 0  0.4333333333333333 0.2 0  0.4666666666666667 0.2 0  0.5 0.2 0  0.5333333333333333 0.2 0  0.5666666666666667 0.2 0  0.6 0.2 0  0.6333333333333333 0.2 0  0.6666666666666666 0.2 0  0.7 0.2 0  0.7333333333333333 0.2 0  0.7666666666666667 0.2 0  0.8 0.2 0  0.8333333333333334 0.2 0  0.8666666666666667 0.2 0  0.9 0.2 0  0.9333333333333333 0.2 0  0.9666666666666667 0.2 0  1 0.2 0  0 0.2333333333333333 0  0.03333333333333333 0.2333333333333333 0  0.06666666666666667 0.2333333333333333 0  0.1 0.2333333333333333 0  0.1333333333333333 0.2333333333333333 0  0.1666666666666667 0.2333333333333333 0  0.2 0.2333333333333333 0  0.2333333333333333 0.2333333333333333 0  0.2666666666666667 0.2333333333333333 0  0.3 0.2333333333333333 0  0.3333333333333333 0.2333333333333333 0  0.3666666666666666 0.2333333333333333 0  0.4 0.2333333333333333 0  0.4333333333333333 0.2333333333333333 0  0.4666666666666667 0.2333333333333333 0  0.5 0.2333333333333333 0  0.5333333333333333 0.2333333333333333 0  0.5666666666666667 0.2333333333333333 0  0.6 0.2333333333333333 0  0.6333333333333333 0.2333333333333333 0  0.6666666666666666 0.2333333333333333 0  0.7 0.2333333333333333 0  0.7333333333333333 0.2333333333333333 0  0.7666666666666667 0.2333333333333333 0  0.8 0.2333333333333333 0  0.8333333333333334 0.2333333333333333 0  0.8666666666666667 0.2333333333333333 0  0.9 0.2333333333333333 0  0.9333333333333333 0.2333333333333333 0  0.9666666666666667 0.2333333333333333 0  1 0.2333333333333333 0  0 0.2666666666666667 0  0.03333333333333333 0.2666666666666667 0  0.06666666666666667 0.2666666666666667 0  0.1 0.2666666666666667 0  0.1333333333333333 0.2666666666666667 0  0.1666666666666667 0.2666666666666667 0  0.2 0.2666666666666667 0  0.2333333333333333 0.2666666666666667 0  0.2666666666666667 0.2666666666666667 0  0.3 0.2666666666666667 0  0.3333333333333333 0.2666666666666667 0  0.3666666666666666 0.2666666666666667 0  0.4 0.2666666666666667 0  0.4333333333333333 0.2666666666666667 0  0.4666666666666667 0.2666666666666667 0  0.5 0.2666666666666667 0  0.5333333333333333 0.2666666666666667 0  0.5666666666666667 0.2666666666666667 0  0.6 0.2666666666666667 0  0.6333333333333333 0.2666666666666667 0  0.6666666666666666 0.2666666666666667 0  0.7 0.2666666666666667 0  0.7333333333333333 0.2666666666666667 0  0.7666666666666667 0.2666666666666667 0  0.8 0.2666666666666667 0  0.8333333333333334 0.2666666666666667 0  0.8666666666666667 0.2666666666666667 0  0.9 0.2666666666666667 0  0.9333333333333333 0.2666666666666667 0  0.9666666666666667 0.2666666666666667 0  1 0.2666666666666667 0  0 0.3 0  0.03333333333333333 0.3 0  0.06666666666666667 0.3 0  0.1 0.3 0  0.1333333333333333 0.3 0  0.1666666666666667 0.3 0  0.2 0.3 0  0.2333333333333333 0.3 0  0.2666666666666667 0.3 0  0.3 0.3 0  0.3333333333333333 0.3 0  0.3666666666666666 0.3 0  0.4 0.3 0  0.4333333333333333 0.3 0  0.4666666666666667 0.3 0  0.5 0.3 0  0.5333333333333333 0.3 0  0.5666666666666667 0.3 0  0.6 0.3 0  0.6333333333333333 0.3 0  0.6666666666666666 0.3 0  0.7 0.3 0  0.7333333333333333 0.3 0  0.7666666666666667 0.3 0  0.8 0.3 0  0.8333333333333334 0.3 0  0.8666666666666667 0.3 0  0.9 0.3 0  0.9333333333333333 0.3 0  0.9666666666666667 0.3 0  1 0.3 0  0 0.3333333333333333 0  0.03333333333333333 0.3333333333333333 0  0.06666666666666667 0.3333333333333333 0  0.1 0.3333333333333333 0  0.1333333333333333 0.3333333333333333 0  0.1666666666666667 0.3333333333333333 0  0.2 0.3333333333333333 0  0.2333333333333333 0.3333333333333333 0  0.2666666666666667 0.3333333333333333 0  0.3 0.3333333333333333 0  0.3333333333333333 0.3333333333333333 0  0.3666666666666666 0.3333333333333333 0  0.4 0.3333333333333333 0  0.4333333333333333 0.3333333333333333 0  0.4666666666666667 0.3333333333333333 0  0.5 0.3333333333333333 0  0.5333333333333333 0.33333333333333
[...]
<PointData  Vectors="u_f"> 
<DataArray  type="Float64"  Name="u_f"  NumberOfComponents="3" format="ascii">2.7078366067131727e-06 -4.4602400632457254e-09 0.0000000000000000e+00  2.7078366075612356e-06 -4.4602457317257337e-09 0.0000000000000000e+00  2.7078366028421372e-06 -4.4602275455353328e-09 0.0000000000000000e+00  2.7078366155586903e-06 -4.4602222006354629e-09 0.0000000000000000e+00  2.7078366071455525e-06 -4.4602372183534349e-09 0.0000000000000000e+00  2.7078366034190954e-06 -4.4602396736376747e-09 0.0000000000000000e+00  2.7078366069170569e-06 -4.4602375515287625e-09 0.0000000000000000e+00  2.7078366096407896e-06 -4.4602424938643657e-09 0.0000000000000000e+00  2.7078366076306246e-06 -4.4602432555706020e-09 0.0000000000000000e+00  2.7078366126929813e-06 -4.4602382183130986e-09 0.0000000000000000e+00  2.7078366043465762e-06 -4.4602402043546381e-09 0.0000000000000000e+00  2.7078365998001370e-06 -4.4602784843891623e-09 0.0000000000000000e+00  2.7078365929448351e-06 -4.4602435837043895e-09 0.0000000000000000e+00  2.7078366090458879e-06 -4.4602468489960724e-09 0.0000000000000000e+00  2.7078366066834655e-06 -4.4602380946598408e-09 0.0000000000000000e+00  2.7078366194023496e-06 -4.4602395668979708e-09 0.0000000000000000e+00  2.7078365997705925e-06 -4.4602426026640538e-09 0.0000000000000000e+00  2.7078366044281624e-06 -4.4602265706749494e-09 0.0000000000000000e+00  2.7078366141924872e-06 -4.4602369188967948e-09 0.0000000000000000e+00  2.7078366117603506e-06 -4.4602270654506108e-09 0.0000000000000000e+00  2.7078366020023142e-06 -4.4602318458064096e-09 0.0000000000000000e+00  2.7078366093186731e-06 -4.4602499909055481e-09 0.0000000000000000e+00  2.7078366230594178e-06 -4.4601967813528987e-09 0.0000000000000000e+00  2.7078366305351544e-06 -4.4602355950317321e-09 0.0000000000000000e+00  2.7078366056483777e-06 -4.4602528237631944e-09 0.0000000000000000e+00  2.7078366089600733e-06 -4.4602313180710021e-09 0.0000000000000000e+00  2.7078366109733825e-06 -4.4602348352770597e-09 0.0000000000000000e+00  2.7078366160331914e-06 -4.4602312151260058e-09 0.0000000000000000e+00  2.7078365962295340e-06 -4.4602344248523274e-09 0.0000000000000000e+00  2.7078366134398882e-06 -4.4602463104728533e-09 0.0000000000000000e+00  2.7078366067132269e-06 1.0092639595481701e-09 0.0000000000000000e+00  4.1704735278742756e-04 -9.7931349442564181e-09 0.0000000000000000e+00  4.1704735279654505e-04 -9.7931412060660653e-09 0.0000000000000000e+00  4.1704735278810443e-04 -9.7931421774027916e-09 0.0000000000000000e+00  4.1704735279623692e-04 -9.7931436760954546e-09 0.0000000000000000e+00  4.1704735279459435e-04 -9.7931516676412478e-09 0.0000000000000000e+00  4.1704735277684043e-04 -9.7931679363116864e-09 0.0000000000000000e+00  4.1704735278378713e-04 -9.7931563289516479e-09 0.0000000000000000e+00  4.1704735278758748e-04 -9.7931671540598189e-09 0.0000000000000000e+00  4.1704735277972279e-04 -9.7931566361061234e-09 0.0000000000000000e+00  4.1704735278468041e-04 -9.7931671038612583e-09 0.0000000000000000e+00  4.1704735278322194e-04 -9.7931465793720321e-09 0.0000000000000000e+00  4.1704735276372246e-04 -9.7931694335948866e-09 0.0000000000000000e+00  4.1704735278273904e-04 -9.7931600830016702e-09 0.0000000000000000e+00  4.1704735278443896e-04 -9.7931540534281283e-09 0.0000000000000000e+00  4.1704735278972683e-04 -9.7931350845521792e-09 0.0000000000000000e+00  4.1704735278923796e-04 -9.7931391776322207e-09 0.0000000000000000e+00  4.1704735279275750e-04 -9.7931474134487634e-09 0.0000000000000000e+00  4.1704735279218959e-04 -9.7931518921795177e-09 0.0000000000000000e+00  4.1704735279139010e-04 -9.7931524084765922e-09 0.0000000000000000e+00  4.1704735278735058e-04 -9.7931547709531261e-09 0.0000000000000000e+00  4.1704735277930114e-04 -9.7931519522443181e-09 0.0000000000000000e+00  4.1704735279398742e-04 -9.7931422425633421e-09 0.0000000000000000e+00  4.1704735281501357e-04 -9.7931107163494110e-09 0.0000000000000000e+00  4.1704735280680377e-04 -9.7931481518988631e-09 0.0000000000000000e+00  4.1704735277748141e-04 -9.7931453790518069e-09 0.0000000000000000e+00  4.1704735278952419e-04 -9.7931501836937343e-09 0.0000000000000000e+00  4.1704735279103210e-04 -9.7931715587395649e-09 0.0000000000000000e+00  4.1704735278188143e-04 -9.7931606503646670e-09 0.0000000000000000e+00  4.1704735279244026e-04 -9.7931438340637111e-09 0.0000000000000000e+00  4.1704735278484770e-04 -9.7931512041448190e-09 0.0000000000000000e+00  4.1704735278742778e-04 3.5102808139943180e-09 0.0000000000000000e+00  7.5927556534811512e-04 -1.3524758650149647e-08 0.0000000000000000e+00  7.5927556535234655e-04 -1.3524756485973691e-08 0.0000000000000000e+00  7.5927556534928519e-04 -1.3524753106949200e-08 0.0000000000000000e+00  7.5927556535013206e-04 -1.3524763062635649e-08 0.0000000000000000e+00  7.5927556533942112e-04 -1.3524771169323713e-08 0.0000000000000000e+00  7.5927556534878516e-04 -1.3524761557112512e-08 0.0000000000000000e+00  7.5927556534354412e-04 -1.3524769819708848e-08 0.0000000000000000e+00  7.5927556534775777e-04 -1.3524760466947228e-08 0.0000000000000000e+00  7.5927556534748921e-04 -1.3524767187808075e-08 0.0000000000000000e+00  7.5927556534204316e-04 -1.3524770335246981e-08 0.0000000000000000e+00  7.5927556534104016e-04 -1.3524768495789576e-08 0.0000000000000000e+00  7.5927556532884722e-04 -1.3524799906535975e-08 0.0000000000000000e+00  7.5927556532706924e-04 -1.3524770913777261e-08 0.0000000000000000e+00  7.5927556534276632e-04 -1.3524776529836094e-08 0.0000000000000000e+00  7.5927556533979062e-04 -1.3524779116525637e-08 0.0000000000000000e+00  7.5927556534997442e-04 -1.3524787168569911e-08 0.0000000000000000e+00  7.5927556533121891e-04 -1.3524776682274919e-08 0.0000000000000000e+00  7.5927556534200597e-04 -1.3524770381217154e-08 0.0000000000000000e+00  7.5927556534215136e-04 -1.3524769119314245e-08 0.0000000000000000e+00  7.5927556534597035e-04 -1.3524771271130297e-08 0.0000000000000000e+00  7.5927556534131468e-04 -1.3524770853929301e-08 0.0000000000000000e+00  7.5927556534266169e-04 -1.3524778682953188e-08 0.0000000000000000e+00  7.5927556536486561e-04 -1.3524741254667891e-08 0.0000000000000000e+00  7.5927556536452365e-04 -1.3524767100855060e-08 0.0000000000000000e+00  7.5927556533399827e-04 -1.3524779786887840e-08 0.0000000000000000e+00  7.5927556534092946e-04 -1.3524783284524049e-08 0.0000000000000000e+00  7.5927556534200933e-04 -1.3524764905128821e-08 0.0000000000000000e+00  7.5927556534605557e-04 -1.3524766830671879e-08 0.0000000000000000e+00  7.5927556534416646e-04 -1.3524761585735449e-08 0.0000000000000000e+00  7.5927556534670078e-04 -1.3524765501873696e-08 0.0000000000000000e+00  7.5927556534811534e-04 5.4532130784251735e-09 0.0000000000000000e+00  9.7021814943486695e-04 -1.4885001951934346e-08 0.0000000000000000e+00  9.7021814943750676e-04 -1.4885004527131346e-08 0.0000000000000000e+00  9.7021814943407743e-04 -1.4885009277021063e-08 0.0000000000000000e+00  9.7021814943218788e-04 -1.4885018397763419e-08 0.0000000000000000e+00  9.7021814943260747e-04 -1.4885021330096615e-08 0.0000000000000000e+00  9.7021814942524509e-04 -1.4885017897512537e-08 0.0000000000000000e+00  9.7021814943215232e-04 -1.4885006989788160e-08 0.0000000000000000e+00  9.7021814943518744e-04 -1.4885011696092951e-08 0.0000000000000000e+00  9.7021814943095926e-04 -1.4885012530061262e-08 0.0000000000000000e+00  9.7021814942433609e-04 -1.4885016668027273e-08 0.0000000000000000e+00  9.7021814943383565e-04 -1.4885000285732447e-08 0.0000000000000000e+00  9.7021814942407783e-04 -1.4884991233294828e-08 0.0000000000000000e+00  9.7021814944652906e-04 -1.4885005457593650e-08 0.0000000000000000e+00  9.7021814943450569e-04 -1.4885005068148230e-08 0.0000000000000000e+00  9.7021814942750955e-04 -1.4885016554186045e-08 0.0000000000000000e+00  9.7021814943457616e-04 -1.4885011400756279e-08 0.0000000000000000e+00  9.7021814943151112e-04 -1.4885016748258234e-08 0.0000000000000000e+00  9.7021814942602593e-04 -1.4885005453040001e-08 0.0000000000000000e+00  9.7021814943849208e-04 -1.4885001840478362e-08 0.0000000000000000e+00  9.7021814943740094e-04 -1.4885006346422591e-08 0.0000000000000000e+00  9.7021814942952031e-04 -1.4885002589662064e-08 0.0000000000000000e+00  9.7021814943390613e-04 -1.4885006802004344e-08 0.0000000000000000e+00  9.7021814944018084e-04 -1.4885007215519053e-08 0.0000000000000000e+00  9.7021814943329854e-04 -1.4884993215216399e-08 0.0000000000000000e+00  9.7021814943348784e-04 -1.4885001689774260e-08 0.0000000000000000e+00  9.7021814943405748e-04 -1.4885006649782359e-08 0.0000000000000000e+00  9.7021814942472966e-04 -1.4885000981139720e-08 0.0000000000000000e+00  9.7021814943972179e-04 -1.4884997649603285e-08 0.0000000000000000e+00  9.7021814943756292e-04 -1.4885004780617814e-08 0.0000000000000000e+00  9.7021814943648935e-04 -1.4884992773078753e-08 0.0000000000000000e+00  9.7021814943486738e-04 6.4667666466106557e-09 0.0000000000000000e+00  1.0134012425085256e-03 -1.3553328872617856e-08 0.0000000000000000e+00  1.0134012425153983e-03 -1.3553326220225662e-08 0.0000000000000000e+00  1.0134012425185492e-03 -1.3553330446120469e-08 0.0000000000000000e+00  1.0134012425045643e-03 -1.3553330330761358e-08 0.0000000000000000e+00  1.0134012425152303e-03 -1.3553322902783854e-08 0.0000000000000000e+00  1.0134012425103900e-03 -1.3553324260855495e-08 0.0000000000000000e+00  1.0134012425136096e-03 -1.3553328086462861e-08 0.0000000000000000e+00  1.0134012425136341e-03 -1.3553320590180620e-08 0.0000000000000000e+00  1.0134012425127552e-03 -1.3553327743854975e-08 0.0000000000000000e+00  1.0134012425237866e-03 -1.3553320205505689e-08 0.0000000000000000e+00  1.0134012425132670e-03 -1.3553319493510123e-08 0.0000000000000000e+00  1.0134012425139921e-03 -1.3553321628087360e-08 0.0000000000000000e+00  1.0134012425172055e-03 -1.3553336248878917e-08 0.0000000000000000e+00  1.0134012425077900e-03 -1.3553334516649106e-08 0.0000000000000000e+00  1.0134012425168464e-03 -1.3553323046549062e-08 0.0000000000000000e+00  1.0134012425136842e-03 -1.3553321812076469e-08 0.0000000000000000e+00  1.0134012425167716e-03 -1.3553332228223580e-08 0.0000000000000000e+00  1.0134012425005267e-03 -1.3553334095978663e-08 0.0000000000000000e+00  1.0134012425176975e-03 -1.3553323132743135e-08 0.0000000000000000e+00  1.0134012425146517e-03 -1.3553332972311531e-08 0.0000000000000000e+00  1.0134012425147029e-03 -1.3553321603150710e-08 0.0000000000000000e+00  1.0134012425218060e-03 -1.3553326398685339e-08 0.0000000000000000e+00  1.0134012425151078e-03 -1.3553330370768418e-08 0.0000000000000000e+00  1.0134012425123012e-03 -1.3553325928141596e-08 0.0000000000000000e+00  1.0134012425170339e-03 -1.3553319017436949e-08 0.0000000000000000e+00  1.0134012425120366e-03 -1.3553327136701758e-08 0.0000000000000000e+00  1.0134012425118610e-03 -1.3553324460565536e-08 0.0000000000000000e+00  1.0134012425140125e-03 -1.3553316201872327e-08 0.0000000000000000e+00  1.0134012425231532e-03 -1.3553319141144417e-08 0.0000000000000000e+00  1.0134012425074275e-03 -1.3553329009118910e-08 0.0000000000000000e+00  1.0134012425085260e-03 6.3374837423857779e-09 0.0000000000000000e+00  8.8135808890133622e-04 -9.7706778171696707e-09 0.0000000000000000e+00  8.8135808891366446e-04 -9.7706809963757010e-09 0.0000000000000000e+00  8.8135808889870898e-04 -9.7706858367963001e-09 0.0000000000000000e+00  8.8135808890541629e-04 -9.7706829218103391e-09 0.0000000000000000e+00  8.8135808889832344e-04 -9.7706815449820003e-09 0.0000000000000000e+00  8.8135808890520714e-04 -9.7706799738646322e-09 0.0000000000000000e+00  8.8135808890464206e-04 -9.7706834795239367e-09 0.0000000000000000e+00  8.8135808890726496e-04 -9.7706859773089016e-09 0.0000000000000000e+00  8.8135808890122335e-04 -9.7706801051615152e-09 0.0000000000000000e+00  8.8135808890206090e-04 -9.7706797915018267e-09 0.0000000000000000e+00  8.8135808890450903e-04 -9.7706853408822264e-09 0.0000000000000000e+00  8.8135808890905996e-04 -9.7706771391096320e-09 0.0000000000000000e+00  8.8135808890067453e-04 -9.7706873994568913e-09 0.0000000000000000e+00  8.8135808890977055e-04 -9.7706800264484375e-09 0.0000000000000000e+00  8.8135808889890923e-04 -9.7706751012432286e-09 0.0000000000000000e+00  8.8135808891356396e-04 -9.7706859260261389e-09 0.0000000000000000e+00  8.8135808889838654e-04 -9.7706819917817156e-09 0.0000000000000000e+00  8.8135808891216393e-04 -9.7706837889552367e-09 0.0000000000000000e+00  8.8135808889526512e-04 -9.7706884928747822e-09 0.0000000000000000e+00  8.8135808890076961e-04 -9.7706814864350830e-09 0.0000000000000000e+00  8.8135808890049997e-04 -9.7706851755413951e-09 0.0000000000000000e+00  8.8135808891168308e-04 -9.7706858557698381e-09 0.0000000000000000e+00  8.8135808889558485e-04 -9.7706715060288246e-09 0.0000000000000000e+00  8.8135808890493382e-04 -9.7706831746462858e-09 0.0000000000000000e+00  8.8135808891301936e-04 -9.7706773850066847e-09 0.0000000000000000e+00  8.8135808890573829e-04 -9.7706853371959390e-09 0.0000000000000000e+00  8.8135808890229021e-04 -9.7706662874385078e-09 0.0000000000000000e+00  8.8135808890219415e-04 -9.7706775028594609e-09 0.0000000000000000e+00  8.8135808891752964e-04 -9.7706888294111366e-09 0.0000000000000000e+00  8.8135808889485128e-04 -9.7706828580592514e-09 0.0000000000000000e+00  8.8135808890133665e-04 5.0719300741018377e-09 0.0000000000000000e+00  5.9692011396880349e-04 -4.2907150615703951e-09 0.0000000000000000e+00  5.9692011396816945e-04 -4.2907282238931893e-09 0.0000000000000000e+00  5.9692011396479802e-04 -4.2907135144681051e-09 0.0000000000000000e+00  5.9692011397223814e-04 -4.2907206636430203e-09 0.0000000000000000e+00  5.9692011396939926e-04 -4.2907179545470520e-09 0.0000000000000000e+00  5.9692011396726610e-04 -4.2907143216024124e-09 0.0000000000000000e+00  5.9692011396920075e-04 -4.2907162553854072e-09 0.0000000000000000e+00  5.9692011396572219e-04 -4.2907205085478996e-09 0.0000000000000000e+00  5.9692011397503354e-04 -4.2907132795214943e-09 0.0000000000000000e+00  5.9692011396491620e-04 -4.2907135322490207e-09 0.0000000000000000e+00  5.9692011396641760e-04 -4.2907182717303975e-09 0.0000000000000000e+00  5.9692011396526650e-04 -4.2907059386596350e-09 0.0000000000000000e+00  5.9692011397404344e-04 -4.2907245588561654e-09 0.0000000000000000e+00  5.9692011396209185e-04 -4.2907185690728433e-09 0.0000000000000000e+00  5.9692011396346944e-04 -4.2907046100240827e-09 0.0000000000000000e+00  5.9692011397413777e-04 -4.2907099391488110e-09 0.0000000000000000e+00  5.9692011396803046e-04 -4.2907113036714552e-09 0.0000000000000000e+00  5.9692011398180091e-04 -4.2907203165899049e-09 0.0000000000000000e+00  5.9692011396405165e-04 -4.2907144685660169e-09 0.0000000000000000e+00  5.9692011395921622e-04 -4.2907161638787439e-09 0.0000000000000000e+00  5.9692011396828774e-04 -4.2907245823833526e-09 0.0000000000000000e+00  5.9692011396739501e-04 -4.2907156953949852e-09 0.0000000000000000e+00  5.9692011397374063e-04 -4.2907197761151220e-09 0.0000000000000000e+00  5.9692011396654857e-04 -4.2907253337896682e-09 0.0000000000000000e+00  5.9692011397137641e-04 -4.2907177465970753e-09 0.0000000000000000e+00  5.9692011396614666e-04 -4.2907162456275877e-09 0.0000000000000000e+00  5.9692011396447406e-04 -4.2907125434566394e-09 0.0000000000000000e+00  5.9692011396612801e-04 -4.2907157689038924e-09 0.0000000000000000e+00  5.9692011397459660e-04 -4.2907066744534393e-09 0.0000000000000000e+00  5.9692011396292820e-04 -4.2907302990019373e-09 0.0000000000000000e+00  5.9692011396880371e-04 2.9058002889638354e-09 0.0000000000000000e+00  2.0926918668845391e-04 1.8164870098678421e-09 0.0000000000000000e+00  2.0926918670094734e-04 1.8164910725902228e-09 0.0000000000000000e+00  2.0926918669244183e-04 1.8164729442420079e-09 0.0000000000000000e+00  2.0926918669725460e-04 1.8164805645434247e-09 0.0000000000000000e+00  2.0926918668841176e-04 1.8164742981801284e-09 0.0000000000000000e+00  2.0926918669062476e-04 1.8164886048105530e-09 0.0000000000000000e+00  2.0926918669933209e-04 1.8164847438717491e-09 0.0000000000000000e+00  2.0926918669452496e-04 1.8164832368713869e-09 0.0000000000000000e+00  2.0926918670024995e-04 1.8164806438528136e-09 0.0000000000000000e+00  2.0926918669378643e-04 1.8164875568071805e-09 0.0000000000000000e+00  2.0926918670618777e-04 1.8164975787790397e-09 0.0000000000000000e+00  2.0926918669521055e-04 1.8164877055597186e-09 0.0000000000000000e+00  2.0926918669324568e-04 1.8164891153478035e-09 0.0000000000000000e+00  2.0926918669630679e-04 1.8164756123957917e-09 0.0000000000000000e+00  2.0926918669884019e-04 1.8164766920172101e-09 0.0000000000000000e+00  2.0926918668754709e-04 1.8164895066499201e-09 0.0000000000000000e+00  2.0926918670490608e-04 1.8164833117355469e-09 0.0000000000000000e+00  2.0926918669558298e-04 1.8164782993333782e-09 0.0000000000000000e+00  2.0926918669559959e-04 1.8164932236066755e-09 0.0000000000000000e+00  2.0926918669742270e-04 1.8164831865915112e-09 0.0000000000000000e+00  2.0926918669261074e-04 1.8164725872684426e-09 0.0000000000000000e+00  2.0926918669338348e-04 1.8164797917512212e-09 0.0000000000000000e+00  2.0926918669096606e-04 1.8164860412822788e-09 0.0000000000000000e+00  2.0926918668945244e-04 1.8164935690876977e-09 0.0000000000000000e+00  2.0926918669998657e-04 1.8164924678499986e-09 0.0000000000000000e+00  2.0926918669595253e-04 1.8164812480651318e-09 0.0000000000000000e+00  2.0926918669916252e-04 1.8164726481463946e-09 0.0000000000000000e+00  2.0926918668588248e-04 1.8164953078227217e-09 0.0000000000000000e+00  2.0926918670369836e-04 1.8164886471350953e-09 0.0000000000000000e+00  2.0926918669114067e-04 1.8164881377091520e-09 0.0000000000000000e+00  2.0926918668845391e-04 2.5190433062640380e-10 0.0000000000000000e+00  -2.1456634515493894e-04 7.4304468592020952e-09 0.0000000000000000e+00  -2.1456634514620216e-04 7.4304508126368969e-09 0.0000000000000000e+00  -2.1456634514360680e-04 7.4304437154494758e-09 0.0000000000000000e+00  -2.1456634515675129e-04 7.4304477874417851e-09 0.0000000000000000e+00  -2.1456634514483558e-04 7.4304468799645668e-09 0.0000000000000000e+00  -2.1456634515197907e-04 7.4304367267906922e-09 0.0000000000000000e+00  -2.1456634514468645e-04 7.4304348070481155e-09 0.0000000000000000e+00  -2.1456634515790732e-04 7.4304464807071167e-09 0.0000000000000000e+00  -2.1456634514781540e-04 7.4304441009375582e-09 0.0000000000000000e+00  -2.1456634514440673e-04 7.4304399712656934e-09 0.0000000000000000e+00  -2.1456634514778819e-04 7.4304280454212668e-09 0.0000000000000000e+00  -2.1456634514714114e-04 7.4304344961531425e-09 0.0000000000000000e+00  -2.1456634515419490e-04 7.4304495098595665e-09 0.0000000000000000e+00  -2.1456634514328642e-04 7.4304430437862300e-09 0.0000000000000000e+00  -2.1456634516142496e-04 7.4304340150384285e-09 0.0000000000000000e+00  -2.1456634515513041e-04 7.4304318979710564e-09 0.0000000000000000e+00  -2.1456634514540896e-04 7.4304429661573544e-09 0.0000000000000000e+00  -2.1456634514472624e-04 7.4304332024289002e-09 0.0000000000000000e+00  -2.1456634515617184e-04 7.4304230797753168e-09 0.0000000000000000e+00  -2.1456634515403504e-04 7.4304341301264891e-09 0.0000000000000000e+00  -2.1456634515352394e-04 7.4304467807058579e-09 0.0000000000000000e+00  -2.1456634514608485e-04 7.4304445153738387e-09 0.0000000000000000e+00  -2.1456634515154154e-04 7.4304393269785524e-09 0.0000000000000000e+00  -2.1456634514810418e-04 7.4304532815820841e-09 0.0000000000000000e+00  -2.1456634514288386e-04 7.4304391996932173e-09 0.0000000000000000e+00  -2.1456634514209862e-04 7.4304429674583970e-09 0.0000000000000000e+00  -2.1456634515273936e-04 7.4304428767648853e-09 0.0000000000000000e+00  -2.1456634515061471e-04 7.4304398904384214e-09 0.0000000000000000e+00  -2.1456634514506256e-04 7.4304400509545530e-09 0.0000000000000000e+00  -2.1456634515030283e-04 7.4304363300269072e-09 0.0000000000000000e+00  -2.1456634515493910e-04 -2.3964081860290789e-09 0.0000000000000000e+00  -6.0130145245383822e-04 1.1616686734403601e-08 0.0000000000000000e+00  -6.0130145245634403e-04 1.1616678961324546e-08 0.00