<?xml version="1.0"?>
<VTKFile type="UnstructuredGrid"  version="0.1"  >
<UnstructuredGrid>
<Piece  NumberOfPoints="961" NumberOfCells="1800">
<Points>
<DataArray  type="Float64"  NumberOfComponents="3"  format="ascii">0 0 0  0.03333333333333333 0 0  0.06666666666666667 0 0  0.1 0 0  0.1333333333333333 0 0  0.1666666666666667 0 0  0.2 0 0  0.2333333333333333 0 0  0.2666666666666667 0 0  0.3 0 0  0.3333333333333333 0 0  0.3666666666666666 0 0  0.4 0 0  0.4333333333333333 0 0  0.4666666666666667 0 0  0.5 0 0  0.5333333333333333 0 0  0.5666666666666667 0 0  0.6 0 0  0.6333333333333333 0 0  0.6666666666666666 0 0  0.7 0 0  0.7333333333333333 0 0  0.7666666666666667 0 0  0.8 0 0  0.8333333333333334 0 0  0.8666666666666667 0 0  0.9 0 0  0.9333333333333333 0 0  0.9666666666666667 0 0  1 0 0  0 0.03333333333333333 0  0.03333333333333333 0.03333333333333333 0  0.06666666666666667 0.03333333333333333 0  0.1 0.03333333333333333 0  0.1333333333333333 0.03333333333333333 0  0.1666666666666667 0.03333333333333333 0  0.2 0.03333333333333333 0  0.2333333333333333 0.03333333333333333 0  0.2666666666666667 0.03333333333333333 0  0.3 0.03333333333333333 0  0.3333333333333333 0.03333333333333333 0  0.3666666666666666 0.03333333333333333 0  0.4 0.03333333333333333 0  0.4333333333333333 0.03333333333333333 0  0.4666666666666667 0.03333333333333333 0  0.5 0.03333333333333333 0  0.5333333333333333 0.03333333333333333 0  0.5666666666666667 0.03333333333333333 0  0.6 0.03333333333333333 0  0.6333333333333333 0.03333333333333333 0  0.6666666666666666 0.03333333333333333 0  0.7 0.03333333333333333 0  0.7333333333333333 0.03333333333333333 0  0.7666666666666667 0.03333333333333333 0  0.8 0.03333333333333333 0  0.8333333333333334 0.03333333333333333 0  0.8666666666666667 0.03333333333333333 0  0.9 0.03333333333333333 0  0.9333333333333333 0.03333333333333333 0  0.9666666666666667 0.03333333333333333 0  1 0.03333333333333333 0  0 0.06666666666666667 0  0.03333333333333333 0.06666666666666667 0  0.06666666666666667 0.06666666666666667 0  0.1 0.06666666666666667 0  0.1333333333333333 0.06666666666666667 0  0.1666666666666667 0.06666666666666667 0  0.2 0.06666666666666667 0  0.2333333333333333 0.06666666666666667 0  0.2666666666666667 0.06666666666666667 0  0.3 0.06666666666666667 0  0.3333333333333333 0.06666666666666667 0  0.3666666666666666 0.06666666666666667 0  0.4 0.06666666666666667 0  0.4333333333333333 0.06666666666666667 0  0.4666666666666667 0.06666666666666667 0  0.5 0.06666666666666667 0  0.5333333333333333 0.06666666666666667 0  0.5666666666666667 0.06666666666666667 0  0.6 0.06666666666666667 0  0.6333333333333333 0.06666666666666667 0  0.6666666666666666 0.06666666666666667 0  0.7 0.06666666666666667 0  0.7333333333333333 0.06666666666666667 0  0.7666666666666667 0.06666666666666667 0  0.8 0.06666666666666667 0  0.8333333333333334 0.06666666666666667 0  0.8666666666666667 0.06666666666666667 0  0.9 0.06666666666666667 0  0.9333333333333333 0.06666666666666667 0  0.9666666666666667 0.06666666666666667 0  1 0.06666666666666667 0  0 0.1 0  0.03333333333333333 0.1 0  0.06666666666666667 0.1 0  0.1 0.1 0  0.1333333333333333 0.1 0  0.1666666666666667 0.1 0  0.2 0.1 0  0.2333333333333333 0.1 0  0.2666666666666667 0.1 0  0.3 0.1 0  0.3333333333333333 0.1 0  0.3666666666666666 0.1 0  0.4 0.1 0  0.4333333333333333 0.1 0  0.4666666666666667 0.1 0  0.5 0.1 0  0.5333333333333333 0.1 0  0.5666666666666667 0.1 0  0.6 0.1 0  0.6333333333333333 0.1 0  0.6666666666666666 0.1 0  0.7 0.1 0  0.7333333333333333 0.1 0  0.7666666666666667 0.1 0  0.8 0.1 0  0.8333333333333334 0.1 0  0.8666666666666667 0.1 0  0.9 0.1 0  0.9333333333333333 0.1 0  0.9666666666666667 0.1 0  1 0.1 0  0 0.1333333333333333 0  0.03333333333333333 0.1333333333333333 0  0.06666666666666667 0.1333333333333333 0  0.1 0.1333333333333333 0  0.1333333333333333 0.1333333333333333 0  0.1666666666666667 0.1333333333333333 0  0.2 0.1333333333333333 0  0.2333333333333333 0.1333333333333333 0  0.2666666666666667 0.1333333333333333 0  0.3 0.1333333333333333 0  0.3333333333333333 0.1333333333333333 0  0.3666666666666666 0.1333333333333333 0  0.4 0.1333333333333333 0  0.4333333333333333 0.1333333333333333 0  0.4666666666666667 0.1333333333333333 0  0.5 0.1333333333333333 0  0.5333333333333333 0.1333333333333333 0  0.5666666666666667 0.1333333333333333 0  0.6 0.1333333333333333 0  0.6333333333333333 0.1333333333333333 0  0.6666666666666666 0.1333333333333333 0  0.7 0.1333333333333333 0  0.7333333333333333 0.1333333333333333 0  0.7666666666666667 0.1333333333333333 0  0.8 0.1333333333333333 0  0.8333333333333334 0.1333333333333333 0  0.8666666666666667 0.1333333333333333 0  0.9 0.1333333333333333 0  0.9333333333333333 0.1333333333333333 0  0.9666666666666667 0.1333333333333333 0  1 0.1333333333333333 0  0 0.1666666666666667 0  0.03333333333333333 0.1666666666666667 0  0.06666666666666667 0.1666666666666667 0  0.1 0.1666666666666667 0  0.1333333333333333 0.1666666666666667 0  0.1666666666666667 0.1666666666666667 0  0.2 0.1666666666666667 0  0.2333333333333333 0.1666666666666667 0  0.2666666666666667 0.1666666666666667 0  0.3 0.1666666666666667 0  0.3333333333333333 0.1666666666666667 0  0.3666666666666666 0.1666666666666667 0  0.4 0.1666666666666667 0  0.4333333333333333 0.1666666666666667 0  0.4666666666666667 0.1666666666666667 0  0.5 0.1666666666666667 0  0.5333333333333333 0.1666666666666667 0  0.5666666666666667 0.1666666666666667 0  0.6 0.1666666666666667 0  0.6333333333333333 0.1666666666666667 0  0.6666666666666666 0.1666666666666667 0  0.7 0.1666666666666667 0  0.7333333333333333 0.1666666666666667 0  0.7666666666666667 0.1666666666666667 0  0.8 0.1666666666666667 0  0.8333333333333334 0.1666666666666667 0  0.8666666666666667 0.1666666666666667 0  0.9 0.1666666666666667 0  0.9333333333333333 0.1666666666666667 0  0.9666666666666667 0.1666666666666667 0  1 0.1666666666666667 0  0 0.2 0  0.03333333333333333 0.2 0  0.06666666666666667 0.2 0  0.1 0.2 0  0.1333333333333333 0.2 0  0.1666666666666667 0.2 0  0.2 0.2 0  0.2333333333333333 0.2 0  0.2666666666666667 0.2 0  0.3 0.2 0  0.3333333333333333 0.2 0  0.3666666666666666 0.2 0  0.4 0.2 0  0.4333333333333333 0.2 0  0.4666666666666667 0.2 0  0.5 0.2 0  0.5333333333333333 0.2 0  0.5666666666666667 0.2 0  0.6 0.2 0  0.6333333333333333 0.2 0  0.6666666666666666 0.2 0  0.7 0.2 0  0.7333333333333333 0.2 0  0.7666666666666667 0.2 0  0.8 0.2 0  0.8333333333333334 0.2 0  0.8666666666666667 0.2 0  0.9 0.2 0  0.9333333333333333 0.2 0  0.9666666666666667 0.2 0  1 0.2 0  0 0.2333333333333333 0  0.03333333333333333 0.2333333333333333 0  0.06666666666666667 0.2333333333333333 0  0.1 0.2333333333333333 0  0.1333333333333333 0.2333333333333333 0  0.1666666666666667 0.2333333333333333 0  0.2 0.2333333333333333 0  0.2333333333333333 0.2333333333333333 0  0.2666666666666667 0.2333333333333333 0  0.3 0.2333333333333333 0  0.3333333333333333 0.2333333333333333 0  0.3666666666666666 0.2333333333333333 0  0.4 0.2333333333333333 0  0.4333333333333333 0.2333333333333333 0  0.4666666666666667 0.2333333333333333 0  0.5 0.2333333333333333 0  0.5333333333333333 0.2333333333333333 0  0.5666666666666667 0.2333333333333333 0  0.6 0.2333333333333333 0  0.6333333333333333 0.2333333333333333 0  0.6666666666666666 0.2333333333333333 0  0.7 0.2333333333333333 0  0.7333333333333333 0.2333333333333333 0  0.7666666666666667 0.2333333333333333 0  0.8 0.2333333333333333 0  0.8333333333333334 0.2333333333333333 0  0.8666666666666667 0.2333333333333333 0  0.9 0.2333333333333333 0  0.9333333333333333 0.2333333333333333 0  0.9666666666666667 0.2333333333333333 0  1 0.2333333333333333 0  0 0.2666666666666667 0  0.03333333333333333 0.2666666666666667 0  0.06666666666666667 0.2666666666666667 0  0.1 0.2666666666666667 0  0.1333333333333333 0.2666666666666667 0  0.1666666666666667 0.2666666666666667 0  0.2 0.2666666666666667 0  0.2333333333333333 0.2666666666666667 0  0.2666666666666667 0.2666666666666667 0  0.3 0.2666666666666667 0  0.3333333333333333 0.2666666666666667 0  0.3666666666666666 0.2666666666666667 0  0.4 0.2666666666666667 0  0.4333333333333333 0.2666666666666667 0  0.4666666666666667 0.2666666666666667 0  0.5 0.2666666666666667 0  0.5333333333333333 0.2666666666666667 0  0.5666666666666667 0.2666666666666667 0  0.6 0.2666666666666667 0  0.6333333333333333 0.2666666666666667 0  0.6666666666666666 0.2666666666666667 0  0.7 0.2666666666666667 0  0.7333333333333333 0.2666666666666667 0  0.7666666666666667 0.2666666666666667 0  0.8 0.2666666666666667 0  0.8333333333333334 0.2666666666666667 0  0.8666666666666667 0.2666666666666667 0  0.9 0.2666666666666667 0  0.9333333333333333 0.2666666666666667 0  0.9666666666666667 0.2666666666666667 0  1 0.2666666666666667 0  0 0.3 0  0.03333333333333333 0.3 0  0.06666666666666667 0.3 0  0.1 0.3 0  0.1333333333333333 0.3 0  0.1666666666666667 0.3 0  0.2 0.3 0  0.2333333333333333 0.3 0  0.2666666666666667 0.3 0  0.3 0.3 0  0.3333333333333333 0.3 0  0.3666666666666666 0.3 0  0.4 0.3 0  0.4333333333333333 0.3 0  0.4666666666666667 0.3 0  0.5 0.3 0  0.5333333333333333 0.3 0  0.5666666666666667 0.3 0  0.6 0.3 0  0.6333333333333333 0.3 0  0.6666666666666666 0.3 0  0.7 0.3 0  0.7333333333333333 0.3 0  0.7666666666666667 0.3 0  0.8 0.3 0  0.8333333333333334 0.3 0  0.8666666666666667 0.3 0  0.9 0.3 0  0.9333333333333333 0.3 0  0.9666666666666667 0.3 0  1 0.3 0  0 0.3333333333333333 0  0.03333333333333333 0.3333333333333333 0  0.06666666666666667 0.3333333333333333 0  0.1 0.3333333333333333 0  0.1333333333333333 0.3333333333333333 0  0.1666666666666667 0.3333333333333333 0  0.2 0.3333333333333333 0  0.2333333333333333 0.3333333333333333 0  0.2666666666666667 0.3333333333333333 0  0.3 0.3333333333333333 0  0.3333333333333333 0.3333333333333333 0  0.3666666666666666 0.3333333333333333 0  0.4 0.3333333333333333 0  0.4333333333333333 0.3333333333333333 0  0.4666666666666667 0.3333333333333333 0  0.5 0.3333333333333333 0  0.5333333333333333 0.33333333333333
[...]
<PointData  Vectors="u_f"> 
<DataArray  type="Float64"  Name="u_f"  NumberOfComponents="3" format="ascii">2.7078022524719327e-06 -4.5362088928885269e-09 0.0000000000000000e+00  2.7078022518657011e-06 -4.5362057349328591e-09 0.0000000000000000e+00  2.7078022555117104e-06 -4.5362076022000507e-09 0.0000000000000000e+00  2.7078022546912404e-06 -4.5362081477163738e-09 0.0000000000000000e+00  2.7078022558449941e-06 -4.5362114690613090e-09 0.0000000000000000e+00  2.7078022501568900e-06 -4.5362102647295358e-09 0.0000000000000000e+00  2.7078022558448315e-06 -4.5362131807454888e-09 0.0000000000000000e+00  2.7078022530868380e-06 -4.5362120309490848e-09 0.0000000000000000e+00  2.7078022534110144e-06 -4.5362140078833262e-09 0.0000000000000000e+00  2.7078022520014432e-06 -4.5362119403639933e-09 0.0000000000000000e+00  2.7078022557539753e-06 -4.5362060300526905e-09 0.0000000000000000e+00  2.7078022526209021e-06 -4.5362148988264614e-09 0.0000000000000000e+00  2.7078022508493700e-06 -4.5362110050769892e-09 0.0000000000000000e+00  2.7078022544233882e-06 -4.5362079853028883e-09 0.0000000000000000e+00  2.7078022543641908e-06 -4.5362079802613482e-09 0.0000000000000000e+00  2.7078022558219006e-06 -4.5362113013894430e-09 0.0000000000000000e+00  2.7078022537544897e-06 -4.5362085264281926e-09 0.0000000000000000e+00  2.7078022563837342e-06 -4.5362083744772581e-09 0.0000000000000000e+00  2.7078022561492212e-06 -4.5362078207209985e-09 0.0000000000000000e+00  2.7078022570433628e-06 -4.5362088295711200e-09 0.0000000000000000e+00  2.7078022542949645e-06 -4.5362057778130550e-09 0.0000000000000000e+00  2.7078022571220216e-06 -4.5362096836513814e-09 0.0000000000000000e+00  2.7078022566849797e-06 -4.5361957980573180e-09 0.0000000000000000e+00  2.7078022625002607e-06 -4.5362056839753570e-09 0.0000000000000000e+00  2.7078022545220506e-06 -4.5362129482925430e-09 0.0000000000000000e+00  2.7078022541346110e-06 -4.5362091150415521e-09 0.0000000000000000e+00  2.7078022560480652e-06 -4.5362082483845455e-09 0.0000000000000000e+00  2.7078022579913349e-06 -4.5362085582495264e-09 0.0000000000000000e+00  2.7078022527570779e-06 -4.5362119656801141e-09 0.0000000000000000e+00  2.7078022550607365e-06 -4.5362092353337831e-09 0.0000000000000000e+00  2.7078022524719869e-06 1.0438002451551164e-09 0.0000000000000000e+00  4.1704726847581388e-04 -8.8267234862361710e-09 0.0000000000000000e+00  4.1704726846404335e-04 -8.8267263167627827e-09 0.0000000000000000e+00  4.1704726847437373e-04 -8.8267165049499621e-09 0.0000000000000000e+00  4.1704726846732826e-04 -8.8267274908453153e-09 0.0000000000000000e+00  4.1704726846902515e-04 -8.8267280751218660e-09 0.0000000000000000e+00  4.1704726846820603e-04 -8.8267271008577938e-09 0.0000000000000000e+00  4.1704726846964813e-04 -8.8267286406417192e-09 0.0000000000000000e+00  4.1704726846893071e-04 -8.8267260024525729e-09 0.0000000000000000e+00  4.1704726847073721e-04 -8.8267212698016698e-09 0.0000000000000000e+00  4.1704726847002955e-04 -8.8267222437404813e-09 0.0000000000000000e+00  4.1704726846708508e-04 -8.8267280557146471e-09 0.0000000000000000e+00  4.1704726846185532e-04 -8.8267339208147194e-09 0.0000000000000000e+00  4.1704726846682574e-04 -8.8267266125331353e-09 0.0000000000000000e+00  4.1704726846843350e-04 -8.8267254675072210e-09 0.0000000000000000e+00  4.1704726846582469e-04 -8.8267233120048819e-09 0.0000000000000000e+00  4.1704726846961626e-04 -8.8267218197090117e-09 0.0000000000000000e+00  4.1704726847142232e-04 -8.8267219349597026e-09 0.0000000000000000e+00  4.1704726847027827e-04 -8.8267221929998196e-09 0.0000000000000000e+00  4.1704726846953819e-04 -8.8267226665793286e-09 0.0000000000000000e+00  4.1704726846704062e-04 -8.8267195059131554e-09 0.0000000000000000e+00  4.1704726847101325e-04 -8.8267236448549488e-09 0.0000000000000000e+00  4.1704726846986649e-04 -8.8267281179478518e-09 0.0000000000000000e+00  4.1704726847237338e-04 -8.8267227399798157e-09 0.0000000000000000e+00  4.1704726847383630e-04 -8.8267217634389189e-09 0.0000000000000000e+00  4.1704726847121600e-04 -8.8267229735169636e-09 0.0000000000000000e+00  4.1704726846911893e-04 -8.8267242315167443e-09 0.0000000000000000e+00  4.1704726846906938e-04 -8.8267237268206331e-09 0.0000000000000000e+00  4.1704726846789465e-04 -8.8267236524443640e-09 0.0000000000000000e+00  4.1704726846829927e-04 -8.8267225262835675e-09 0.0000000000000000e+00  4.1704726846627030e-04 -8.8267199072847996e-09 0.0000000000000000e+00  4.1704726847581410e-04 4.4017865167852632e-09 0.0000000000000000e+00  7.5927545624544096e-04 -1.1637688188451643e-08 0.0000000000000000e+00  7.5927545624737637e-04 -1.1637683301735612e-08 0.0000000000000000e+00  7.5927545624750929e-04 -1.1637682872499971e-08 0.0000000000000000e+00  7.5927545624852150e-04 -1.1637680332756382e-08 0.0000000000000000e+00  7.5927545624660995e-04 -1.1637676883909272e-08 0.0000000000000000e+00  7.5927545625078282e-04 -1.1637674394906344e-08 0.0000000000000000e+00  7.5927545624684706e-04 -1.1637682530325766e-08 0.0000000000000000e+00  7.5927545624886292e-04 -1.1637683986517704e-08 0.0000000000000000e+00  7.5927545624859664e-04 -1.1637685689799317e-08 0.0000000000000000e+00  7.5927545624825772e-04 -1.1637683291218850e-08 0.0000000000000000e+00  7.5927545624464006e-04 -1.1637680634815108e-08 0.0000000000000000e+00  7.5927545624164354e-04 -1.1637692022298946e-08 0.0000000000000000e+00  7.5927545624563980e-04 -1.1637683975025161e-08 0.0000000000000000e+00  7.5927545624775692e-04 -1.1637684497285347e-08 0.0000000000000000e+00  7.5927545624628306e-04 -1.1637681415115411e-08 0.0000000000000000e+00  7.5927545625026826e-04 -1.1637680895999411e-08 0.0000000000000000e+00  7.5927545624794005e-04 -1.1637680398350614e-08 0.0000000000000000e+00  7.5927545625133880e-04 -1.1637680232467681e-08 0.0000000000000000e+00  7.5927545624840712e-04 -1.1637682738384163e-08 0.0000000000000000e+00  7.5927545624971684e-04 -1.1637681574276290e-08 0.0000000000000000e+00  7.5927545624781601e-04 -1.1637685695654008e-08 0.0000000000000000e+00  7.5927545624587746e-04 -1.1637683260969610e-08 0.0000000000000000e+00  7.5927545625287989e-04 -1.1637670569407399e-08 0.0000000000000000e+00  7.5927545625166743e-04 -1.1637682727325301e-08 0.0000000000000000e+00  7.5927545624800087e-04 -1.1637684408922870e-08 0.0000000000000000e+00  7.5927545624729711e-04 -1.1637683369931928e-08 0.0000000000000000e+00  7.5927545624909472e-04 -1.1637682933648974e-08 0.0000000000000000e+00  7.5927545624777026e-04 -1.1637677240286526e-08 0.0000000000000000e+00  7.5927545625289149e-04 -1.1637682002861409e-08 0.0000000000000000e+00  7.5927545624736087e-04 -1.1637685670066837e-08 0.0000000000000000e+00  7.5927545624544139e-04 7.0219802770340908e-09 0.0000000000000000e+00  9.7021801311644815e-04 -1.2446000641555544e-08 0.0000000000000000e+00  9.7021801311658823e-04 -1.2445996886096058e-08 0.0000000000000000e+00  9.7021801311621505e-04 -1.2446004978581074e-08 0.0000000000000000e+00  9.7021801311396511e-04 -1.2446006262059606e-08 0.0000000000000000e+00  9.7021801311242186e-04 -1.2446006700510964e-08 0.0000000000000000e+00  9.7021801311164514e-04 -1.2446003558276228e-08 0.0000000000000000e+00  9.7021801311941518e-04 -1.2446003187695925e-08 0.0000000000000000e+00  9.7021801311203393e-04 -1.2446001441913587e-08 0.0000000000000000e+00  9.7021801311722206e-04 -1.2446001783870952e-08 0.0000000000000000e+00  9.7021801311025497e-04 -1.2446005728848977e-08 0.0000000000000000e+00  9.7021801311572586e-04 -1.2445999735162527e-08 0.0000000000000000e+00  9.7021801311476764e-04 -1.2446000239750218e-08 0.0000000000000000e+00  9.7021801311115660e-04 -1.2446007581316809e-08 0.0000000000000000e+00  9.7021801311191077e-04 -1.2446003674069020e-08 0.0000000000000000e+00  9.7021801311811414e-04 -1.2446005530439980e-08 0.0000000000000000e+00  9.7021801311246631e-04 -1.2446003559360430e-08 0.0000000000000000e+00  9.7021801311635166e-04 -1.2446004871245059e-08 0.0000000000000000e+00  9.7021801311476439e-04 -1.2446005856351153e-08 0.0000000000000000e+00  9.7021801311430837e-04 -1.2446004763692203e-08 0.0000000000000000e+00  9.7021801311478542e-04 -1.2446005367592813e-08 0.0000000000000000e+00  9.7021801311397400e-04 -1.2446004082813239e-08 0.0000000000000000e+00  9.7021801311446471e-04 -1.2446004598026111e-08 0.0000000000000000e+00  9.7021801311584772e-04 -1.2446007993096794e-08 0.0000000000000000e+00  9.7021801311740203e-04 -1.2446009985860387e-08 0.0000000000000000e+00  9.7021801310660815e-04 -1.2446007212254390e-08 0.0000000000000000e+00  9.7021801311513692e-04 -1.2446004281005396e-08 0.0000000000000000e+00  9.7021801311456533e-04 -1.2446005500082319e-08 0.0000000000000000e+00  9.7021801311405185e-04 -1.2446006801558607e-08 0.0000000000000000e+00  9.7021801311107918e-04 -1.2446001797098219e-08 0.0000000000000000e+00  9.7021801311616474e-04 -1.2445995738793320e-08 0.0000000000000000e+00  9.7021801311644859e-04 8.4432155757468038e-09 0.0000000000000000e+00  1.0134010678924288e-03 -1.1072814028417581e-08 0.0000000000000000e+00  1.0134010678941210e-03 -1.1072811548847213e-08 0.0000000000000000e+00  1.0134010678872487e-03 -1.1072812635868311e-08 0.0000000000000000e+00  1.0134010678935000e-03 -1.1072814936870581e-08 0.0000000000000000e+00  1.0134010678900184e-03 -1.1072815921109314e-08 0.0000000000000000e+00  1.0134010678942633e-03 -1.1072816196062985e-08 0.0000000000000000e+00  1.0134010678909647e-03 -1.1072816335599804e-08 0.0000000000000000e+00  1.0134010678890092e-03 -1.1072815490355790e-08 0.0000000000000000e+00  1.0134010678923284e-03 -1.1072811269231472e-08 0.0000000000000000e+00  1.0134010678956469e-03 -1.1072811266412547e-08 0.0000000000000000e+00  1.0134010678891875e-03 -1.1072812395175428e-08 0.0000000000000000e+00  1.0134010678929822e-03 -1.1072810882713398e-08 0.0000000000000000e+00  1.0134010678948123e-03 -1.1072813556139115e-08 0.0000000000000000e+00  1.0134010678896981e-03 -1.1072813385377273e-08 0.0000000000000000e+00  1.0134010678923325e-03 -1.1072811924740106e-08 0.0000000000000000e+00  1.0134010678931058e-03 -1.1072816332889299e-08 0.0000000000000000e+00  1.0134010678921764e-03 -1.1072816664113062e-08 0.0000000000000000e+00  1.0134010678920411e-03 -1.1072816798120451e-08 0.0000000000000000e+00  1.0134010678919463e-03 -1.1072816428299090e-08 0.0000000000000000e+00  1.0134010678927857e-03 -1.1072817406141029e-08 0.0000000000000000e+00  1.0134010678924821e-03 -1.1072815732783396e-08 0.0000000000000000e+00  1.0134010678922042e-03 -1.1072816731984118e-08 0.0000000000000000e+00  1.0134010678928378e-03 -1.1072814832353492e-08 0.0000000000000000e+00  1.0134010678920498e-03 -1.1072815073805316e-08 0.0000000000000000e+00  1.0134010678889188e-03 -1.1072812772369364e-08 0.0000000000000000e+00  1.0134010678923282e-03 -1.1072814731956371e-08 0.0000000000000000e+00  1.0134010678921777e-03 -1.1072817206864670e-08 0.0000000000000000e+00  1.0134010678916451e-03 -1.1072811446498527e-08 0.0000000000000000e+00  1.0134010678933131e-03 -1.1072812205331628e-08 0.0000000000000000e+00  1.0134010678948631e-03 -1.1072812420979440e-08 0.0000000000000000e+00  1.0134010678924290e-03 8.4030250996627342e-09 0.0000000000000000e+00  8.8135788559845355e-04 -7.7402517797975356e-09 0.0000000000000000e+00  8.8135788559568439e-04 -7.7402455347930221e-09 0.0000000000000000e+00  8.8135788560087501e-04 -7.7402506033297583e-09 0.0000000000000000e+00  8.8135788559528074e-04 -7.7402468413650602e-09 0.0000000000000000e+00  8.8135788559886414e-04 -7.7402436128278310e-09 0.0000000000000000e+00  8.8135788559924751e-04 -7.7402516912182182e-09 0.0000000000000000e+00  8.8135788559279499e-04 -7.7402458314307365e-09 0.0000000000000000e+00  8.8135788559577958e-04 -7.7402423587311781e-09 0.0000000000000000e+00  8.8135788559869598e-04 -7.7402418376636140e-09 0.0000000000000000e+00  8.8135788559951249e-04 -7.7402435316210882e-09 0.0000000000000000e+00  8.8135788559816602e-04 -7.7402518286950536e-09 0.0000000000000000e+00  8.8135788559544630e-04 -7.7402443691672665e-09 0.0000000000000000e+00  8.8135788559873837e-04 -7.7402471784435156e-09 0.0000000000000000e+00  8.8135788559355415e-04 -7.7402480874386170e-09 0.0000000000000000e+00  8.8135788559807289e-04 -7.7402459643539229e-09 0.0000000000000000e+00  8.8135788559424012e-04 -7.7402491309832080e-09 0.0000000000000000e+00  8.8135788559560188e-04 -7.7402450132917772e-09 0.0000000000000000e+00  8.8135788559583867e-04 -7.7402450044013194e-09 0.0000000000000000e+00  8.8135788559599469e-04 -7.7402450167612241e-09 0.0000000000000000e+00  8.8135788559530665e-04 -7.7402473776114547e-09 0.0000000000000000e+00  8.8135788559454338e-04 -7.7402431752438342e-09 0.0000000000000000e+00  8.8135788559843490e-04 -7.7402456724866980e-09 0.0000000000000000e+00  8.8135788559377045e-04 -7.7402523570267723e-09 0.0000000000000000e+00  8.8135788559855286e-04 -7.7402463855664669e-09 0.0000000000000000e+00  8.8135788559564406e-04 -7.7402475617089836e-09 0.0000000000000000e+00  8.8135788559750975e-04 -7.7402452344690204e-09 0.0000000000000000e+00  8.8135788559482017e-04 -7.7402469567241713e-09 0.0000000000000000e+00  8.8135788559512342e-04 -7.7402426883286385e-09 0.0000000000000000e+00  8.8135788560050562e-04 -7.7402433145638133e-09 0.0000000000000000e+00  8.8135788559564536e-04 -7.7402442314735906e-09 0.0000000000000000e+00  8.8135788559845377e-04 6.8940648749864301e-09 0.0000000000000000e+00  5.9691992879994864e-04 -3.0431433868053498e-09 0.0000000000000000e+00  5.9691992880341678e-04 -3.0431449135246390e-09 0.0000000000000000e+00  5.9691992880197718e-04 -3.0431448271137258e-09 0.0000000000000000e+00  5.9691992880442834e-04 -3.0431511642212139e-09 0.0000000000000000e+00  5.9691992879985930e-04 -3.0431536192886133e-09 0.0000000000000000e+00  5.9691992880111589e-04 -3.0431430084187916e-09 0.0000000000000000e+00  5.9691992880417160e-04 -3.0431479201256835e-09 0.0000000000000000e+00  5.9691992880179048e-04 -3.0431505577727287e-09 0.0000000000000000e+00  5.9691992880394132e-04 -3.0431494453270896e-09 0.0000000000000000e+00  5.9691992880205069e-04 -3.0431500209842331e-09 0.0000000000000000e+00  5.9691992880068416e-04 -3.0431501165024445e-09 0.0000000000000000e+00  5.9691992879874322e-04 -3.0431409867612107e-09 0.0000000000000000e+00  5.9691992880556318e-04 -3.0431481548012437e-09 0.0000000000000000e+00  5.9691992880369260e-04 -3.0431485639249335e-09 0.0000000000000000e+00  5.9691992880254801e-04 -3.0431485955294268e-09 0.0000000000000000e+00  5.9691992880226514e-04 -3.0431471861208127e-09 0.0000000000000000e+00  5.9691992880287631e-04 -3.0431472039559385e-09 0.0000000000000000e+00  5.9691992880312622e-04 -3.0431470412171924e-09 0.0000000000000000e+00  5.9691992880312199e-04 -3.0431485546550049e-09 0.0000000000000000e+00  5.9691992880107707e-04 -3.0431478728002587e-09 0.0000000000000000e+00  5.9691992880406340e-04 -3.0431492492491267e-09 0.0000000000000000e+00  5.9691992880074379e-04 -3.0431491331310741e-09 0.0000000000000000e+00  5.9691992880154783e-04 -3.0431391744630693e-09 0.0000000000000000e+00  5.9691992880531565e-04 -3.0431482238649221e-09 0.0000000000000000e+00  5.9691992880146869e-04 -3.0431500041790994e-09 0.0000000000000000e+00  5.9691992880293084e-04 -3.0431489932689938e-09 0.0000000000000000e+00  5.9691992880080765e-04 -3.0431481913388569e-09 0.0000000000000000e+00  5.9691992880368111e-04 -3.0431475718257356e-09 0.0000000000000000e+00  5.9691992880326087e-04 -3.0431504681092091e-09 0.0000000000000000e+00  5.9691992879991795e-04 -3.0431535642111429e-09 0.0000000000000000e+00  5.9691992879994864e-04 4.1748611955862070e-09 0.0000000000000000e+00  2.0926909246498767e-04 2.1661022244406697e-09 0.0000000000000000e+00  2.0926909246160285e-04 2.1661013664301754e-09 0.0000000000000000e+00  2.0926909246540758e-04 2.1661016492578646e-09 0.0000000000000000e+00  2.0926909246386170e-04 2.1661004953957026e-09 0.0000000000000000e+00  2.0926909246215614e-04 2.1661021015463534e-09 0.0000000000000000e+00  2.0926909246198546e-04 2.1661072915814955e-09 0.0000000000000000e+00  2.0926909246659245e-04 2.1661071910217440e-09 0.0000000000000000e+00  2.0926909246520608e-04 2.1661067322144897e-09 0.0000000000000000e+00  2.0926909246566885e-04 2.1661008381255618e-09 0.0000000000000000e+00  2.0926909246352974e-04 2.1660982354846942e-09 0.0000000000000000e+00  2.0926909246288239e-04 2.1661102040602389e-09 0.0000000000000000e+00  2.0926909246691639e-04 2.1661015252522411e-09 0.0000000000000000e+00  2.0926909246332074e-04 2.1660995280434192e-09 0.0000000000000000e+00  2.0926909246228055e-04 2.1661011413633569e-09 0.0000000000000000e+00  2.0926909246813308e-04 2.1661018847330240e-09 0.0000000000000000e+00  2.0926909246534082e-04 2.1661032256200608e-09 0.0000000000000000e+00  2.0926909246402834e-04 2.1661043332138951e-09 0.0000000000000000e+00  2.0926909246574696e-04 2.1661050085634284e-09 0.0000000000000000e+00  2.0926909246630476e-04 2.1661037658644508e-09 0.0000000000000000e+00  2.0926909246436575e-04 2.1661044454017149e-09 0.0000000000000000e+00  2.0926909246492498e-04 2.1661034711511953e-09 0.0000000000000000e+00  2.0926909246220715e-04 2.1661038019412781e-09 0.0000000000000000e+00  2.0926909246617062e-04 2.1661039788695201e-09 0.0000000000000000e+00  2.0926909246383378e-04 2.1661068686884381e-09 0.0000000000000000e+00  2.0926909246571287e-04 2.1661060258296692e-09 0.0000000000000000e+00  2.0926909246597421e-04 2.1661033979946537e-09 0.0000000000000000e+00  2.0926909246522649e-04 2.1661037268060675e-09 0.0000000000000000e+00  2.0926909246436691e-04 2.1661058569922859e-09 0.0000000000000000e+00  2.0926909246611109e-04 2.1661005280708455e-09 0.0000000000000000e+00  2.0926909246335161e-04 2.1661110306153177e-09 0.0000000000000000e+00  2.0926909246498770e-04 7.2664103486852134e-10 0.0000000000000000e+00  -2.1456628469713904e-04 6.9515656178457952e-09 0.0000000000000000e+00  -2.1456628470238907e-04 6.9515679763649911e-09 0.0000000000000000e+00  -2.1456628469568610e-04 6.9515681263101516e-09 0.0000000000000000e+00  -2.1456628470140543e-04 6.9515700521784705e-09 0.0000000000000000e+00  -2.1456628469598583e-04 6.9515654330977450e-09 0.0000000000000000e+00  -2.1456628470325155e-04 6.9515696659856567e-09 0.0000000000000000e+00  -2.1456628469973635e-04 6.9515711875549856e-09 0.0000000000000000e+00  -2.1456628469665711e-04 6.9515678936945755e-09 0.0000000000000000e+00  -2.1456628469922087e-04 6.9515700303317968e-09 0.0000000000000000e+00  -2.1456628470252817e-04 6.9515713391264493e-09 0.0000000000000000e+00  -2.1456628469815309e-04 6.9515686381077871e-09 0.0000000000000000e+00  -2.1456628469714690e-04 6.9515631739998883e-09 0.0000000000000000e+00  -2.1456628470629740e-04 6.9515715212182042e-09 0.0000000000000000e+00  -2.1456628469596398e-04 6.9515665130715290e-09 0.0000000000000000e+00  -2.1456628470223045e-04 6.9515690940148006e-09 0.0000000000000000e+00  -2.1456628469881028e-04 6.9515710898141597e-09 0.0000000000000000e+00  -2.1456628469965455e-04 6.9515705418041716e-09 0.0000000000000000e+00  -2.1456628469947414e-04 6.9515706773836533e-09 0.0000000000000000e+00  -2.1456628469981555e-04 6.9515708012537515e-09 0.0000000000000000e+00  -2.1456628469883180e-04 6.9515695703048150e-09 0.0000000000000000e+00  -2.1456628470252427e-04 6.9515669195389235e-09 0.0000000000000000e+00  -2.1456628469770022e-04 6.9515683140397577e-09 0.0000000000000000e+00  -2.1456628469844886e-04 6.9515628021727532e-09 0.0000000000000000e+00  -2.1456628470576820e-04 6.9515713210744831e-09 0.0000000000000000e+00  -2.1456628469619643e-04 6.9515670573952297e-09 0.0000000000000000e+00  -2.1456628470043035e-04 6.9515700405232972e-09 0.0000000000000000e+00  -2.1456628469876252e-04 6.9515688278431673e-09 0.0000000000000000e+00  -2.1456628469823598e-04 6.9515642758745562e-09 0.0000000000000000e+00  -2.1456628470653251e-04 6.9515685295249395e-09 0.0000000000000000e+00  -2.1456628470015166e-04 6.9515721400808042e-09 0.0000000000000000e+00  -2.1456628469713920e-04 -2.8371298490239029e-09 0.0000000000000000e+00  -6.0130122058307941e-04 1.0478864320316236e-08 0.0000000000000000e+00  -6.0130122058439509e-04 1.0478859925394310e-08 0.00