<?xml version="1.0"?>
<VTKFile type="UnstructuredGrid"  version="0.1"  >
<UnstructuredGrid>
<Piece  NumberOfPoints="961" NumberOfCells="1800">
<Points>
<DataArray  type="Float64"  NumberOfComponents="3"  format="ascii">0 0 0  0.03333333333333333 0 0  0.06666666666666667 0 0  0.1 0 0  0.1333333333333333 0 0  0.1666666666666667 0 0  0.2 0 0  0.2333333333333333 0 0  0.2666666666666667 0 0  0.3 0 0  0.3333333333333333 0 0  0.3666666666666666 0 0  0.4 0 0  0.4333333333333333 0 0  0.4666666666666667 0 0  0.5 0 0  0.5333333333333333 0 0  0.5666666666666667 0 0  0.6 0 0  0.6333333333333333 0 0  0.6666666666666666 0 0  0.7 0 0  0.7333333333333333 0 0  0.7666666666666667 0 0  0.8 0 0  0.8333333333333334 0 0  0.8666666666666667 0 0  0.9 0 0  0.9333333333333333 0 0  0.9666666666666667 0 0  1 0 0  0 0.03333333333333333 0  0.03333333333333333 0.03333333333333333 0  0.06666666666666667 0.03333333333333333 0  0.1 0.03333333333333333 0  0.1333333333333333 0.03333333333333333 0  0.1666666666666667 0.03333333333333333 0  0.2 0.03333333333333333 0  0.2333333333333333 0.03333333333333333 0  0.2666666666666667 0.03333333333333333 0  0.3 0.03333333333333333 0  0.3333333333333333 0.03333333333333333 0  0.3666666666666666 0.03333333333333333 0  0.4 0.03333333333333333 0  0.4333333333333333 0.03333333333333333 0  0.4666666666666667 0.03333333333333333 0  0.5 0.03333333333333333 0  0.5333333333333333 0.03333333333333333 0  0.5666666666666667 0.03333333333333333 0  0.6 0.03333333333333333 0  0.6333333333333333 0.03333333333333333 0  0.6666666666666666 0.03333333333333333 0  0.7 0.03333333333333333 0  0.7333333333333333 0.03333333333333333 0  0.7666666666666667 0.03333333333333333 0  0.8 0.03333333333333333 0  0.8333333333333334 0.03333333333333333 0  0.8666666666666667 0.03333333333333333 0  0.9 0.03333333333333333 0  0.9333333333333333 0.03333333333333333 0  0.9666666666666667 0.03333333333333333 0  1 0.03333333333333333 0  0 0.06666666666666667 0  0.03333333333333333 0.06666666666666667 0  0.06666666666666667 0.06666666666666667 0  0.1 0.06666666666666667 0  0.1333333333333333 0.06666666666666667 0  0.1666666666666667 0.06666666666666667 0  0.2 0.06666666666666667 0  0.2333333333333333 0.06666666666666667 0  0.2666666666666667 0.06666666666666667 0  0.3 0.06666666666666667 0  0.3333333333333333 0.06666666666666667 0  0.3666666666666666 0.06666666666666667 0  0.4 0.06666666666666667 0  0.4333333333333333 0.06666666666666667 0  0.4666666666666667 0.06666666666666667 0  0.5 0.06666666666666667 0  0.5333333333333333 0.06666666666666667 0  0.5666666666666667 0.06666666666666667 0  0.6 0.06666666666666667 0  0.6333333333333333 0.06666666666666667 0  0.6666666666666666 0.06666666666666667 0  0.7 0.06666666666666667 0  0.7333333333333333 0.06666666666666667 0  0.7666666666666667 0.06666666666666667 0  0.8 0.06666666666666667 0  0.8333333333333334 0.06666666666666667 0  0.8666666666666667 0.06666666666666667 0  0.9 0.06666666666666667 0  0.9333333333333333 0.06666666666666667 0  0.9666666666666667 0.06666666666666667 0  1 0.06666666666666667 0  0 0.1 0  0.03333333333333333 0.1 0  0.06666666666666667 0.1 0  0.1 0.1 0  0.1333333333333333 0.1 0  0.1666666666666667 0.1 0  0.2 0.1 0  0.2333333333333333 0.1 0  0.2666666666666667 0.1 0  0.3 0.1 0  0.3333333333333333 0.1 0  0.3666666666666666 0.1 0  0.4 0.1 0  0.4333333333333333 0.1 0  0.4666666666666667 0.1 0  0.5 0.1 0  0.5333333333333333 0.1 0  0.5666666666666667 0.1 0  0.6 0.1 0  0.6333333333333333 0.1 0  0.6666666666666666 0.1 0  0.7 0.1 0  0.7333333333333333 0.1 0  0.7666666666666667 0.1 0  0.8 0.1 0  0.8333333333333334 0.1 0  0.8666666666666667 0.1 0  0.9 0.1 0  0.9333333333333333 0.1 0  0.9666666666666667 0.1 0  1 0.1 0  0 0.1333333333333333 0  0.03333333333333333 0.1333333333333333 0  0.06666666666666667 0.1333333333333333 0  0.1 0.1333333333333333 0  0.1333333333333333 0.1333333333333333 0  0.1666666666666667 0.1333333333333333 0  0.2 0.1333333333333333 0  0.2333333333333333 0.1333333333333333 0  0.2666666666666667 0.1333333333333333 0  0.3 0.1333333333333333 0  0.3333333333333333 0.1333333333333333 0  0.3666666666666666 0.1333333333333333 0  0.4 0.1333333333333333 0  0.4333333333333333 0.1333333333333333 0  0.4666666666666667 0.1333333333333333 0  0.5 0.1333333333333333 0  0.5333333333333333 0.1333333333333333 0  0.5666666666666667 0.1333333333333333 0  0.6 0.1333333333333333 0  0.6333333333333333 0.1333333333333333 0  0.6666666666666666 0.1333333333333333 0  0.7 0.1333333333333333 0  0.7333333333333333 0.1333333333333333 0  0.7666666666666667 0.1333333333333333 0  0.8 0.1333333333333333 0  0.8333333333333334 0.1333333333333333 0  0.8666666666666667 0.1333333333333333 0  0.9 0.1333333333333333 0  0.9333333333333333 0.1333333333333333 0  0.9666666666666667 0.1333333333333333 0  1 0.1333333333333333 0  0 0.1666666666666667 0  0.03333333333333333 0.1666666666666667 0  0.06666666666666667 0.1666666666666667 0  0.1 0.1666666666666667 0  0.1333333333333333 0.1666666666666667 0  0.1666666666666667 0.1666666666666667 0  0.2 0.1666666666666667 0  0.2333333333333333 0.1666666666666667 0  0.2666666666666667 0.1666666666666667 0  0.3 0.1666666666666667 0  0.3333333333333333 0.1666666666666667 0  0.3666666666666666 0.1666666666666667 0  0.4 0.1666666666666667 0  0.4333333333333333 0.1666666666666667 0  0.4666666666666667 0.1666666666666667 0  0.5 0.1666666666666667 0  0.5333333333333333 0.1666666666666667 0  0.5666666666666667 0.1666666666666667 0  0.6 0.1666666666666667 0  0.6333333333333333 0.1666666666666667 0  0.6666666666666666 0.1666666666666667 0  0.7 0.1666666666666667 0  0.7333333333333333 0.1666666666666667 0  0.7666666666666667 0.1666666666666667 0  0.8 0.1666666666666667 0  0.8333333333333334 0.1666666666666667 0  0.8666666666666667 0.1666666666666667 0  0.9 0.1666666666666667 0  0.9333333333333333 0.1666666666666667 0  0.9666666666666667 0.1666666666666667 0  1 0.1666666666666667 0  0 0.2 0  0.03333333333333333 0.2 0  0.06666666666666667 0.2 0  0.1 0.2 0  0.1333333333333333 0.2 0  0.1666666666666667 0.2 0  0.2 0.2 0  0.2333333333333333 0.2 0  0.2666666666666667 0.2 0  0.3 0.2 0  0.3333333333333333 0.2 0  0.3666666666666666 0.2 0  0.4 0.2 0  0.4333333333333333 0.2 0  0.4666666666666667 0.2 0  0.5 0.2 0  0.5333333333333333 0.2 0  0.5666666666666667 0.2 0  0.6 0.2 0  0.6333333333333333 0.2 0  0.6666666666666666 0.2 0  0.7 0.2 0  0.7333333333333333 0.2 0  0.7666666666666667 0.2 0  0.8 0.2 0  0.8333333333333334 0.2 0  0.8666666666666667 0.2 0  0.9 0.2 0  0.9333333333333333 0.2 0  0.9666666666666667 0.2 0  1 0.2 0  0 0.2333333333333333 0  0.03333333333333333 0.2333333333333333 0  0.06666666666666667 0.2333333333333333 0  0.1 0.2333333333333333 0  0.1333333333333333 0.2333333333333333 0  0.1666666666666667 0.2333333333333333 0  0.2 0.2333333333333333 0  0.2333333333333333 0.2333333333333333 0  0.2666666666666667 0.2333333333333333 0  0.3 0.2333333333333333 0  0.3333333333333333 0.2333333333333333 0  0.3666666666666666 0.2333333333333333 0  0.4 0.2333333333333333 0  0.4333333333333333 0.2333333333333333 0  0.4666666666666667 0.2333333333333333 0  0.5 0.2333333333333333 0  0.5333333333333333 0.2333333333333333 0  0.5666666666666667 0.2333333333333333 0  0.6 0.2333333333333333 0  0.6333333333333333 0.2333333333333333 0  0.6666666666666666 0.2333333333333333 0  0.7 0.2333333333333333 0  0.7333333333333333 0.2333333333333333 0  0.7666666666666667 0.2333333333333333 0  0.8 0.2333333333333333 0  0.8333333333333334 0.2333333333333333 0  0.8666666666666667 0.2333333333333333 0  0.9 0.2333333333333333 0  0.9333333333333333 0.2333333333333333 0  0.9666666666666667 0.2333333333333333 0  1 0.2333333333333333 0  0 0.2666666666666667 0  0.03333333333333333 0.2666666666666667 0  0.06666666666666667 0.2666666666666667 0  0.1 0.2666666666666667 0  0.1333333333333333 0.2666666666666667 0  0.1666666666666667 0.2666666666666667 0  0.2 0.2666666666666667 0  0.2333333333333333 0.2666666666666667 0  0.2666666666666667 0.2666666666666667 0  0.3 0.2666666666666667 0  0.3333333333333333 0.2666666666666667 0  0.3666666666666666 0.2666666666666667 0  0.4 0.2666666666666667 0  0.4333333333333333 0.2666666666666667 0  0.4666666666666667 0.2666666666666667 0  0.5 0.2666666666666667 0  0.5333333333333333 0.2666666666666667 0  0.5666666666666667 0.2666666666666667 0  0.6 0.2666666666666667 0  0.6333333333333333 0.2666666666666667 0  0.6666666666666666 0.2666666666666667 0  0.7 0.2666666666666667 0  0.7333333333333333 0.2666666666666667 0  0.7666666666666667 0.2666666666666667 0  0.8 0.2666666666666667 0  0.8333333333333334 0.2666666666666667 0  0.8666666666666667 0.2666666666666667 0  0.9 0.2666666666666667 0  0.9333333333333333 0.2666666666666667 0  0.9666666666666667 0.2666666666666667 0  1 0.2666666666666667 0  0 0.3 0  0.03333333333333333 0.3 0  0.06666666666666667 0.3 0  0.1 0.3 0  0.1333333333333333 0.3 0  0.1666666666666667 0.3 0  0.2 0.3 0  0.2333333333333333 0.3 0  0.2666666666666667 0.3 0  0.3 0.3 0  0.3333333333333333 0.3 0  0.3666666666666666 0.3 0  0.4 0.3 0  0.4333333333333333 0.3 0  0.4666666666666667 0.3 0  0.5 0.3 0  0.5333333333333333 0.3 0  0.5666666666666667 0.3 0  0.6 0.3 0  0.6333333333333333 0.3 0  0.6666666666666666 0.3 0  0.7 0.3 0  0.7333333333333333 0.3 0  0.7666666666666667 0.3 0  0.8 0.3 0  0.8333333333333334 0.3 0  0.8666666666666667 0.3 0  0.9 0.3 0  0.9333333333333333 0.3 0  0.9666666666666667 0.3 0  1 0.3 0  0 0.3333333333333333 0  0.03333333333333333 0.3333333333333333 0  0.06666666666666667 0.3333333333333333 0  0.1 0.3333333333333333 0  0.1333333333333333 0.3333333333333333 0  0.1666666666666667 0.3333333333333333 0  0.2 0.3333333333333333 0  0.2333333333333333 0.3333333333333333 0  0.2666666666666667 0.3333333333333333 0  0.3 0.3333333333333333 0  0.3333333333333333 0.3333333333333333 0  0.3666666666666666 0.3333333333333333 0  0.4 0.3333333333333333 0  0.4333333333333333 0.3333333333333333 0  0.4666666666666667 0.3333333333333333 0  0.5 0.3333333333333333 0  0.5333333333333333 0.33333333333333
[...]
<PointData  Vectors="u_f"> 
<DataArray  type="Float64"  Name="u_f"  NumberOfComponents="3" format="ascii">2.7100093906175758e-06 4.9218821737435220e-09 0.0000000000000000e+00  2.7100094052781034e-06 4.9218945230773171e-09 0.0000000000000000e+00  2.7100093955230485e-06 4.9218773831420128e-09 0.0000000000000000e+00  2.7100093942817455e-06 4.9218693023663808e-09 0.0000000000000000e+00  2.7100093920352786e-06 4.9218841669407959e-09 0.0000000000000000e+00  2.7100093971719574e-06 4.9218975316841357e-09 0.0000000000000000e+00  2.7100094081386082e-06 4.9218951774475383e-09 0.0000000000000000e+00  2.7100093922049562e-06 4.9218945107716225e-09 0.0000000000000000e+00  2.7100094008935356e-06 4.9218939225377338e-09 0.0000000000000000e+00  2.7100094063499999e-06 4.9218948540842404e-09 0.0000000000000000e+00  2.7100093979287305e-06 4.9219006852487847e-09 0.0000000000000000e+00  2.7100094041257591e-06 4.9218473554581144e-09 0.0000000000000000e+00  2.7100093690478615e-06 4.9218783222237245e-09 0.0000000000000000e+00  2.7100093937593769e-06 4.9218842981834689e-09 0.0000000000000000e+00  2.7100094015254086e-06 4.9218692176359810e-09 0.0000000000000000e+00  2.7100093858814013e-06 4.9218788547838316e-09 0.0000000000000000e+00  2.7100094087987789e-06 4.9218851233155322e-09 0.0000000000000000e+00  2.7100093956588991e-06 4.9218742082185810e-09 0.0000000000000000e+00  2.7100093914972432e-06 4.9218807254120499e-09 0.0000000000000000e+00  2.7100094098745785e-06 4.9218864439821985e-09 0.0000000000000000e+00  2.7100093856434731e-06 4.9218864201297507e-09 0.0000000000000000e+00  2.7100093952508054e-06 4.9218845664150863e-09 0.0000000000000000e+00  2.7100094081041306e-06 4.9219107528248977e-09 0.0000000000000000e+00  2.7100094279534871e-06 4.9218931636504232e-09 0.0000000000000000e+00  2.7100093964733517e-06 4.9218737045524617e-09 0.0000000000000000e+00  2.7100093987045856e-06 4.9218803371592519e-09 0.0000000000000000e+00  2.7100093976228229e-06 4.9218799821372505e-09 0.0000000000000000e+00  2.7100093965063115e-06 4.9218869456425438e-09 0.0000000000000000e+00  2.7100094057134106e-06 4.9218916937975379e-09 0.0000000000000000e+00  2.7100093997978951e-06 4.9218802995374365e-09 0.0000000000000000e+00  2.7100093906176300e-06 -1.1635884873082949e-09 0.0000000000000000e+00  4.1705483194740944e-04 9.0858123251609524e-09 0.0000000000000000e+00  4.1705483194474653e-04 9.0858036285584864e-09 0.0000000000000000e+00  4.1705483195074412e-04 9.0858083694493261e-09 0.0000000000000000e+00  4.1705483195659176e-04 9.0858181918873279e-09 0.0000000000000000e+00  4.1705483194432781e-04 9.0858222541760278e-09 0.0000000000000000e+00  4.1705483195835446e-04 9.0858242733941538e-09 0.0000000000000000e+00  4.1705483196789717e-04 9.0858262577009699e-09 0.0000000000000000e+00  4.1705483195070780e-04 9.0858223216134029e-09 0.0000000000000000e+00  4.1705483195753404e-04 9.0858231614364057e-09 0.0000000000000000e+00  4.1705483195948029e-04 9.0858300195572478e-09 0.0000000000000000e+00  4.1705483196750762e-04 9.0858354135714761e-09 0.0000000000000000e+00  4.1705483192922888e-04 9.0857813131841117e-09 0.0000000000000000e+00  4.1705483193485329e-04 9.0858192532128346e-09 0.0000000000000000e+00  4.1705483195947151e-04 9.0858276008106212e-09 0.0000000000000000e+00  4.1705483195506239e-04 9.0858320757466679e-09 0.0000000000000000e+00  4.1705483195845431e-04 9.0858189558161787e-09 0.0000000000000000e+00  4.1705483195806053e-04 9.0858083580652033e-09 0.0000000000000000e+00  4.1705483195365412e-04 9.0858288891680627e-09 0.0000000000000000e+00  4.1705483195250215e-04 9.0858248249277990e-09 0.0000000000000000e+00  4.1705483195784803e-04 9.0858068994880206e-09 0.0000000000000000e+00  4.1705483195574511e-04 9.0858141487890065e-09 0.0000000000000000e+00  4.1705483195016700e-04 9.0858069646485712e-09 0.0000000000000000e+00  4.1705483197340741e-04 9.0858470048853224e-09 0.0000000000000000e+00  4.1705483197117515e-04 9.0858295451103771e-09 0.0000000000000000e+00  4.1705483195687192e-04 9.0858244658400394e-09 0.0000000000000000e+00  4.1705483195433695e-04 9.0858149256198631e-09 0.0000000000000000e+00  4.1705483194845244e-04 9.0858387410963637e-09 0.0000000000000000e+00  4.1705483196637202e-04 9.0858188580211427e-09 0.0000000000000000e+00  4.1705483194954022e-04 9.0858126623478280e-09 0.0000000000000000e+00  4.1705483196981578e-04 9.0858118709886623e-09 0.0000000000000000e+00  4.1705483194740965e-04 -4.6825540508263259e-09 0.0000000000000000e+00  7.5928707297066281e-04 1.1617856905676849e-08 0.0000000000000000e+00  7.5928707296907141e-04 1.1617861404899024e-08 0.0000000000000000e+00  7.5928707297852793e-04 1.1617867020957857e-08 0.0000000000000000e+00  7.5928707296370342e-04 1.1617861182095478e-08 0.0000000000000000e+00  7.5928707297055536e-04 1.1617870394886598e-08 0.0000000000000000e+00  7.5928707297308513e-04 1.1617865970474373e-08 0.0000000000000000e+00  7.5928707297849226e-04 1.1617872755303148e-08 0.0000000000000000e+00  7.5928707297226515e-04 1.1617865835165941e-08 0.0000000000000000e+00  7.5928707298108687e-04 1.1617885300714906e-08 0.0000000000000000e+00  7.5928707298660535e-04 1.1617869312419149e-08 0.0000000000000000e+00  7.5928707297656043e-04 1.1617871547935608e-08 0.0000000000000000e+00  7.5928707295513920e-04 1.1617826947652940e-08 0.0000000000000000e+00  7.5928707294499367e-04 1.1617851155068526e-08 0.0000000000000000e+00  7.5928707297367570e-04 1.1617855048221687e-08 0.0000000000000000e+00  7.5928707296916932e-04 1.1617854205146078e-08 0.0000000000000000e+00  7.5928707297240035e-04 1.1617868432589086e-08 0.0000000000000000e+00  7.5928707297408726e-04 1.1617874650813806e-08 0.0000000000000000e+00  7.5928707298126630e-04 1.1617863354077690e-08 0.0000000000000000e+00  7.5928707296120152e-04 1.1617857233864846e-08 0.0000000000000000e+00  7.5928707297593984e-04 1.1617868035987931e-08 0.0000000000000000e+00  7.5928707297070390e-04 1.1617867903823687e-08 0.0000000000000000e+00  7.5928707297595187e-04 1.1617865059527707e-08 0.0000000000000000e+00  7.5928707298959460e-04 1.1617905412339945e-08 0.0000000000000000e+00  7.5928707299275256e-04 1.1617881045980320e-08 0.0000000000000000e+00  7.5928707297501360e-04 1.1617867824026407e-08 0.0000000000000000e+00  7.5928707297962981e-04 1.1617884916798916e-08 0.0000000000000000e+00  7.5928707297183667e-04 1.1617865070586569e-08 0.0000000000000000e+00  7.5928707297886816e-04 1.1617861004394742e-08 0.0000000000000000e+00  7.5928707296446768e-04 1.1617860004218238e-08 0.0000000000000000e+00  7.5928707296166382e-04 1.1617847054615910e-08 0.0000000000000000e+00  7.5928707297066324e-04 -7.3563310056037469e-09 0.0000000000000000e+00  9.7023171949029395e-04 1.2216435356371402e-08 0.0000000000000000e+00  9.7023171948729201e-04 1.2216431307093129e-08 0.0000000000000000e+00  9.7023171948960310e-04 1.2216437371035879e-08 0.0000000000000000e+00  9.7023171949468107e-04 1.2216438211292563e-08 0.0000000000000000e+00  9.7023171949253435e-04 1.2216454304322250e-08 0.0000000000000000e+00  9.7023171949895065e-04 1.2216441255081742e-08 0.0000000000000000e+00  9.7023171949348974e-04 1.2216423977019081e-08 0.0000000000000000e+00  9.7023171949427232e-04 1.2216421622131962e-08 0.0000000000000000e+00  9.7023171948766324e-04 1.2216438025243470e-08 0.0000000000000000e+00  9.7023171949161473e-04 1.2216443962768248e-08 0.0000000000000000e+00  9.7023171949875918e-04 1.2216429192248371e-08 0.0000000000000000e+00  9.7023171948405155e-04 1.2216438728673840e-08 0.0000000000000000e+00  9.7023171949055915e-04 1.2216433009073699e-08 0.0000000000000000e+00  9.7023171948686310e-04 1.2216439439476784e-08 0.0000000000000000e+00  9.7023171950056828e-04 1.2216449884029992e-08 0.0000000000000000e+00  9.7023171949903566e-04 1.2216445563267495e-08 0.0000000000000000e+00  9.7023171949833656e-04 1.2216450301447829e-08 0.0000000000000000e+00  9.7023171949885308e-04 1.2216440013887095e-08 0.0000000000000000e+00  9.7023171948458671e-04 1.2216444835334156e-08 0.0000000000000000e+00  9.7023171949226698e-04 1.2216435214557758e-08 0.0000000000000000e+00  9.7023171948988651e-04 1.2216431601128758e-08 0.0000000000000000e+00  9.7023171949509653e-04 1.2216445010758067e-08 0.0000000000000000e+00  9.7023171950940497e-04 1.2216424116230640e-08 0.0000000000000000e+00  9.7023171948488595e-04 1.2216432104632247e-08 0.0000000000000000e+00  9.7023171949395769e-04 1.2216434410947108e-08 0.0000000000000000e+00  9.7023171950236351e-04 1.2216445966807543e-08 0.0000000000000000e+00  9.7023171948851868e-04 1.2216431529354574e-08 0.0000000000000000e+00  9.7023171949711640e-04 1.2216422188519177e-08 0.0000000000000000e+00  9.7023171947876671e-04 1.2216431098492631e-08 0.0000000000000000e+00  9.7023171949077685e-04 1.2216440845253321e-08 0.0000000000000000e+00  9.7023171949029460e-04 -8.7658451952672191e-09 0.0000000000000000e+00  1.0134145438817712e-03 1.0842930012189278e-08 0.0000000000000000e+00  1.0134145438854454e-03 1.0842941119190014e-08 0.0000000000000000e+00  1.0134145438884820e-03 1.0842943227095878e-08 0.0000000000000000e+00  1.0134145438932163e-03 1.0842947167194993e-08 0.0000000000000000e+00  1.0134145439062135e-03 1.0842933334401575e-08 0.0000000000000000e+00  1.0134145438863017e-03 1.0842937163153127e-08 0.0000000000000000e+00  1.0134145438936339e-03 1.0842945159144149e-08 0.0000000000000000e+00  1.0134145438966684e-03 1.0842942664069689e-08 0.0000000000000000e+00  1.0134145438979556e-03 1.0842941084603964e-08 0.0000000000000000e+00  1.0134145438895604e-03 1.0842946715299527e-08 0.0000000000000000e+00  1.0134145438913753e-03 1.0842942540036961e-08 0.0000000000000000e+00  1.0134145438983101e-03 1.0842941489661896e-08 0.0000000000000000e+00  1.0134145438879974e-03 1.0842946772328561e-08 0.0000000000000000e+00  1.0134145438989730e-03 1.0842939779332969e-08 0.0000000000000000e+00  1.0134145439032033e-03 1.0842930473192042e-08 0.0000000000000000e+00  1.0134145438901879e-03 1.0842933365951858e-08 0.0000000000000000e+00  1.0134145438918741e-03 1.0842938710634888e-08 0.0000000000000000e+00  1.0134145439004011e-03 1.0842929721731516e-08 0.0000000000000000e+00  1.0134145438922908e-03 1.0842933086336118e-08 0.0000000000000000e+00  1.0134145438860011e-03 1.0842939002393692e-08 0.0000000000000000e+00  1.0134145438912413e-03 1.0842933503645534e-08 0.0000000000000000e+00  1.0134145438875628e-03 1.0842935289760193e-08 0.0000000000000000e+00  1.0134145438975054e-03 1.0842925652503922e-08 0.0000000000000000e+00  1.0134145438897228e-03 1.0842917966486301e-08 0.0000000000000000e+00  1.0134145438860653e-03 1.0842941140765637e-08 0.0000000000000000e+00  1.0134145438900023e-03 1.0842931676114352e-08 0.0000000000000000e+00  1.0134145439026885e-03 1.0842942682609547e-08 0.0000000000000000e+00  1.0134145438972497e-03 1.0842943326191956e-08 0.0000000000000000e+00  1.0134145438855120e-03 1.0842942859442921e-08 0.0000000000000000e+00  1.0134145438906047e-03 1.0842930266217847e-08 0.0000000000000000e+00  1.0134145438817715e-03 -8.6982056619271782e-09 0.0000000000000000e+00  8.8136881717819143e-04 7.6854783624420026e-09 0.0000000000000000e+00  8.8136881717684507e-04 7.6854792710034231e-09 0.0000000000000000e+00  8.8136881716354928e-04 7.6854715617838756e-09 0.0000000000000000e+00  8.8136881717499444e-04 7.6854735686420969e-09 0.0000000000000000e+00  8.8136881717288057e-04 7.6854822780381485e-09 0.0000000000000000e+00  8.8136881717334060e-04 7.6854730799921778e-09 0.0000000000000000e+00  8.8136881718061386e-04 7.6854853017695873e-09 0.0000000000000000e+00  8.8136881717793263e-04 7.6854812606228298e-09 0.0000000000000000e+00  8.8136881717619661e-04 7.6854768594125308e-09 0.0000000000000000e+00  8.8136881717973522e-04 7.6854734749670292e-09 0.0000000000000000e+00  8.8136881717423452e-04 7.6854775561208469e-09 0.0000000000000000e+00  8.8136881718231422e-04 7.6854764513188331e-09 0.0000000000000000e+00  8.8136881716210729e-04 7.6854881642801631e-09 0.0000000000000000e+00  8.8136881718516252e-04 7.6855012507088052e-09 0.0000000000000000e+00  8.8136881717912796e-04 7.6854775409420165e-09 0.0000000000000000e+00  8.8136881717501623e-04 7.6854849472354769e-09 0.0000000000000000e+00  8.8136881717906259e-04 7.6854809846933769e-09 0.0000000000000000e+00  8.8136881717106280e-04 7.6854784240246860e-09 0.0000000000000000e+00  8.8136881717121903e-04 7.6854903952429734e-09 0.0000000000000000e+00  8.8136881719116857e-04 7.6854798784819003e-09 0.0000000000000000e+00  8.8136881716425596e-04 7.6854838431924047e-09 0.0000000000000000e+00  8.8136881717082666e-04 7.6854809194244061e-09 0.0000000000000000e+00  8.8136881717750307e-04 7.6854953776940571e-09 0.0000000000000000e+00  8.8136881717729469e-04 7.6854788269142132e-09 0.0000000000000000e+00  8.8136881716966917e-04 7.6854918956703600e-09 0.0000000000000000e+00  8.8136881717472838e-04 7.6854743653138533e-09 0.0000000000000000e+00  8.8136881718729135e-04 7.6854726387218936e-09 0.0000000000000000e+00  8.8136881716925598e-04 7.6854678673649729e-09 0.0000000000000000e+00  8.8136881716932558e-04 7.6854801795648436e-09 0.0000000000000000e+00  8.8136881717740798e-04 7.6854837924517430e-09 0.0000000000000000e+00  8.8136881717819186e-04 -7.1630571571114407e-09 0.0000000000000000e+00  5.9692639161430501e-04 3.1591591511293156e-09 0.0000000000000000e+00  5.9692639161723529e-04 3.1591598028432415e-09 0.0000000000000000e+00  5.9692639161648513e-04 3.1591541302974750e-09 0.0000000000000000e+00  5.9692639160863138e-04 3.1591577852514187e-09 0.0000000000000000e+00  5.9692639162322583e-04 3.1591516571238994e-09 0.0000000000000000e+00  5.9692639160790497e-04 3.1591620044783830e-09 0.0000000000000000e+00  5.9692639162536062e-04 3.1591544017274889e-09 0.0000000000000000e+00  5.9692639161119726e-04 3.1591418100745082e-09 0.0000000000000000e+00  5.9692639161551759e-04 3.1591451944115896e-09 0.0000000000000000e+00  5.9692639161015490e-04 3.1591431236938604e-09 0.0000000000000000e+00  5.9692639161764414e-04 3.1591487602441147e-09 0.0000000000000000e+00  5.9692639160938447e-04 3.1591569271596093e-09 0.0000000000000000e+00  5.9692639161105490e-04 3.1591649210906472e-09 0.0000000000000000e+00  5.9692639162087159e-04 3.1591589765185557e-09 0.0000000000000000e+00  5.9692639160341073e-04 3.1591380442608924e-09 0.0000000000000000e+00  5.9692639162577219e-04 3.1591442513725400e-09 0.0000000000000000e+00  5.9692639161062317e-04 3.1591553456339003e-09 0.0000000000000000e+00  5.9692639161121504e-04 3.1591487941796427e-09 0.0000000000000000e+00  5.9692639161033445e-04 3.1591496617582211e-09 0.0000000000000000e+00  5.9692639162313964e-04 3.1591585375250961e-09 0.0000000000000000e+00  5.9692639162208460e-04 3.1591532525816063e-09 0.0000000000000000e+00  5.9692639160221312e-04 3.1591432932630802e-09 0.0000000000000000e+00  5.9692639161653706e-04 3.1591358591598340e-09 0.0000000000000000e+00  5.9692639161480928e-04 3.1591538731789298e-09 0.0000000000000000e+00  5.9692639161108125e-04 3.1591422921107941e-09 0.0000000000000000e+00  5.9692639160664968e-04 3.1591448447021789e-09 0.0000000000000000e+00  5.9692639162115630e-04 3.1591473538170566e-09 0.0000000000000000e+00  5.9692639161199827e-04 3.1591510243293014e-09 0.0000000000000000e+00  5.9692639161258688e-04 3.1591597850081157e-09 0.0000000000000000e+00  5.9692639162095963e-04 3.1591601296217763e-09 0.0000000000000000e+00  5.9692639161430512e-04 -4.3925447586151809e-09 0.0000000000000000e+00  2.0926990138571763e-04 -2.0792043575951821e-09 0.0000000000000000e+00  2.0926990138310617e-04 -2.0792076412369867e-09 0.0000000000000000e+00  2.0926990138678050e-04 -2.0792013812298256e-09 0.0000000000000000e+00  2.0926990138724701e-04 -2.0792073679638291e-09 0.0000000000000000e+00  2.0926990138716084e-04 -2.0792092233319018e-09 0.0000000000000000e+00  2.0926990137410962e-04 -2.0792197470589739e-09 0.0000000000000000e+00  2.0926990138230885e-04 -2.0792197923108621e-09 0.0000000000000000e+00  2.0926990138747279e-04 -2.0792054477469140e-09 0.0000000000000000e+00  2.0926990138890454e-04 -2.0791972939367132e-09 0.0000000000000000e+00  2.0926990139036571e-04 -2.0792038556773388e-09 0.0000000000000000e+00  2.0926990138636392e-04 -2.0792074395618301e-09 0.0000000000000000e+00  2.0926990138324310e-04 -2.0792015534146831e-09 0.0000000000000000e+00  2.0926990139614386e-04 -2.0792143289076947e-09 0.0000000000000000e+00  2.0926990137664898e-04 -2.0791983976680773e-09 0.0000000000000000e+00  2.0926990140523267e-04 -2.0791911324699770e-09 0.0000000000000000e+00  2.0926990138655230e-04 -2.0791990223718165e-09 0.0000000000000000e+00  2.0926990138733445e-04 -2.0792006265573509e-09 0.0000000000000000e+00  2.0926990139429573e-04 -2.0792144415020903e-09 0.0000000000000000e+00  2.0926990138635785e-04 -2.0792226176061983e-09 0.0000000000000000e+00  2.0926990138340815e-04 -2.0792081816575596e-09 0.0000000000000000e+00  2.0926990138979632e-04 -2.0791999678232160e-09 0.0000000000000000e+00  2.0926990138459120e-04 -2.0791995734717808e-09 0.0000000000000000e+00  2.0926990138437954e-04 -2.0792004595902164e-09 0.0000000000000000e+00  2.0926990138850474e-04 -2.0792266288560809e-09 0.0000000000000000e+00  2.0926990138291903e-04 -2.0792041683205878e-09 0.0000000000000000e+00  2.0926990138446419e-04 -2.0792042113634140e-09 0.0000000000000000e+00  2.0926990139250105e-04 -2.0792059204048511e-09 0.0000000000000000e+00  2.0926990138193951e-04 -2.0792120384899478e-09 0.0000000000000000e+00  2.0926990138878132e-04 -2.0792177616001930e-09 0.0000000000000000e+00  2.0926990138502434e-04 -2.0792131430751211e-09 0.0000000000000000e+00  2.0926990138571769e-04 -8.2342994331395071e-10 0.0000000000000000e+00  -2.1457133166609768e-04 -7.1614033214824346e-09 0.0000000000000000e+00  -2.1457133167910003e-04 -7.1614053866165227e-09 0.0000000000000000e+00  -2.1457133167469312e-04 -7.1614056641180687e-09 0.0000000000000000e+00  -2.1457133167889349e-04 -7.1614001854276507e-09 0.0000000000000000e+00  -2.1457133167298860e-04 -7.1614148543577838e-09 0.0000000000000000e+00  -2.1457133168252513e-04 -7.1613982255695936e-09 0.0000000000000000e+00  -2.1457133166596053e-04 -7.1613894816959130e-09 0.0000000000000000e+00  -2.1457133167884177e-04 -7.1614139147881811e-09 0.0000000000000000e+00  -2.1457133166866610e-04 -7.1614261444802665e-09 0.0000000000000000e+00  -2.1457133167734991e-04 -7.1614030674538656e-09 0.0000000000000000e+00  -2.1457133167373659e-04 -7.1614082286898875e-09 0.0000000000000000e+00  -2.1457133167112133e-04 -7.1614037614516762e-09 0.0000000000000000e+00  -2.1457133167281989e-04 -7.1614122542241337e-09 0.0000000000000000e+00  -2.1457133167917018e-04 -7.1614116691886415e-09 0.0000000000000000e+00  -2.1457133166824369e-04 -7.1614142594560518e-09 0.0000000000000000e+00  -2.1457133167247268e-04 -7.1614093467191678e-09 0.0000000000000000e+00  -2.1457133167433816e-04 -7.1614112643475503e-09 0.0000000000000000e+00  -2.1457133167772423e-04 -7.1614064475625586e-09 0.0000000000000000e+00  -2.1457133167494639e-04 -7.1613890604833690e-09 0.0000000000000000e+00  -2.1457133167498250e-04 -7.1614028120158338e-09 0.0000000000000000e+00  -2.1457133166711602e-04 -7.1614017722117403e-09 0.0000000000000000e+00  -2.1457133168450532e-04 -7.1614044304044167e-09 0.0000000000000000e+00  -2.1457133167714467e-04 -7.1614095751605655e-09 0.0000000000000000e+00  -2.1457133166542222e-04 -7.1614142673707276e-09 0.0000000000000000e+00  -2.1457133167980552e-04 -7.1614157177621839e-09 0.0000000000000000e+00  -2.1457133168028267e-04 -7.1614089977686986e-09 0.0000000000000000e+00  -2.1457133167642535e-04 -7.1613988826503203e-09 0.0000000000000000e+00  -2.1457133166724444e-04 -7.1614043978783515e-09 0.0000000000000000e+00  -2.1457133167848295e-04 -7.1614092424731289e-09 0.0000000000000000e+00  -2.1457133167357228e-04 -7.1614053536025665e-09 0.0000000000000000e+00  -2.1457133166609784e-04 2.9506968610471691e-09 0.0000000000000000e+00  -6.0131127195064082e-04 -1.1133139717956798e-08 0.0000000000000000e+00  -6.0131127196219592e-04 -1.1133140165407035e-08 0.0000000000000000e+00  -6.0131127195399978e-04 -1.1133135743705315e-08 0.0000000000000000e+00  -6.0131127195234410e-04 -1.1133140058287860e-08 0