<?xml version="1.0"?>
<VTKFile type="UnstructuredGrid"  version="0.1"  >
<UnstructuredGrid>
<Piece  NumberOfPoints="961" NumberOfCells="1800">
<Points>
<DataArray  type="Float64"  NumberOfComponents="3"  format="ascii">0 0 0  0.03333333333333333 0 0  0.06666666666666667 0 0  0.1 0 0  0.1333333333333333 0 0  0.1666666666666667 0 0  0.2 0 0  0.2333333333333333 0 0  0.2666666666666667 0 0  0.3 0 0  0.3333333333333333 0 0  0.3666666666666666 0 0  0.4 0 0  0.4333333333333333 0 0  0.4666666666666667 0 0  0.5 0 0  0.5333333333333333 0 0  0.5666666666666667 0 0  0.6 0 0  0.6333333333333333 0 0  0.6666666666666666 0 0  0.7 0 0  0.7333333333333333 0 0  0.7666666666666667 0 0  0.8 0 0  0.8333333333333334 0 0  0.8666666666666667 0 0  0.9 0 0  0.9333333333333333 0 0  0.9666666666666667 0 0  1 0 0  0 0.03333333333333333 0  0.03333333333333333 0.03333333333333333 0  0.06666666666666667 0.03333333333333333 0  0.1 0.03333333333333333 0  0.1333333333333333 0.03333333333333333 0  0.1666666666666667 0.03333333333333333 0  0.2 0.03333333333333333 0  0.2333333333333333 0.03333333333333333 0  0.2666666666666667 0.03333333333333333 0  0.3 0.03333333333333333 0  0.3333333333333333 0.03333333333333333 0  0.3666666666666666 0.03333333333333333 0  0.4 0.03333333333333333 0  0.4333333333333333 0.03333333333333333 0  0.4666666666666667 0.03333333333333333 0  0.5 0.03333333333333333 0  0.5333333333333333 0.03333333333333333 0  0.5666666666666667 0.03333333333333333 0  0.6 0.03333333333333333 0  0.6333333333333333 0.03333333333333333 0  0.6666666666666666 0.03333333333333333 0  0.7 0.03333333333333333 0  0.7333333333333333 0.03333333333333333 0  0.7666666666666667 0.03333333333333333 0  0.8 0.03333333333333333 0  0.8333333333333334 0.03333333333333333 0  0.8666666666666667 0.03333333333333333 0  0.9 0.03333333333333333 0  0.9333333333333333 0.03333333333333333 0  0.9666666666666667 0.03333333333333333 0  1 0.03333333333333333 0  0 0.06666666666666667 0  0.03333333333333333 0.06666666666666667 0  0.06666666666666667 0.06666666666666667 0  0.1 0.06666666666666667 0  0.1333333333333333 0.06666666666666667 0  0.1666666666666667 0.06666666666666667 0  0.2 0.06666666666666667 0  0.2333333333333333 0.06666666666666667 0  0.2666666666666667 0.06666666666666667 0  0.3 0.06666666666666667 0  0.3333333333333333 0.06666666666666667 0  0.3666666666666666 0.06666666666666667 0  0.4 0.06666666666666667 0  0.4333333333333333 0.06666666666666667 0  0.4666666666666667 0.06666666666666667 0  0.5 0.06666666666666667 0  0.5333333333333333 0.06666666666666667 0  0.5666666666666667 0.06666666666666667 0  0.6 0.06666666666666667 0  0.6333333333333333 0.06666666666666667 0  0.6666666666666666 0.06666666666666667 0  0.7 0.06666666666666667 0  0.7333333333333333 0.06666666666666667 0  0.7666666666666667 0.06666666666666667 0  0.8 0.06666666666666667 0  0.8333333333333334 0.06666666666666667 0  0.8666666666666667 0.06666666666666667 0  0.9 0.06666666666666667 0  0.9333333333333333 0.06666666666666667 0  0.9666666666666667 0.06666666666666667 0  1 0.06666666666666667 0  0 0.1 0  0.03333333333333333 0.1 0  0.06666666666666667 0.1 0  0.1 0.1 0  0.1333333333333333 0.1 0  0.1666666666666667 0.1 0  0.2 0.1 0  0.2333333333333333 0.1 0  0.2666666666666667 0.1 0  0.3 0.1 0  0.3333333333333333 0.1 0  0.3666666666666666 0.1 0  0.4 0.1 0  0.4333333333333333 0.1 0  0.4666666666666667 0.1 0  0.5 0.1 0  0.5333333333333333 0.1 0  0.5666666666666667 0.1 0  0.6 0.1 0  0.6333333333333333 0.1 0  0.6666666666666666 0.1 0  0.7 0.1 0  0.7333333333333333 0.1 0  0.7666666666666667 0.1 0  0.8 0.1 0  0.8333333333333334 0.1 0  0.8666666666666667 0.1 0  0.9 0.1 0  0.9333333333333333 0.1 0  0.9666666666666667 0.1 0  1 0.1 0  0 0.1333333333333333 0  0.03333333333333333 0.1333333333333333 0  0.06666666666666667 0.1333333333333333 0  0.1 0.1333333333333333 0  0.1333333333333333 0.1333333333333333 0  0.1666666666666667 0.1333333333333333 0  0.2 0.1333333333333333 0  0.2333333333333333 0.1333333333333333 0  0.2666666666666667 0.1333333333333333 0  0.3 0.1333333333333333 0  0.3333333333333333 0.1333333333333333 0  0.3666666666666666 0.1333333333333333 0  0.4 0.1333333333333333 0  0.4333333333333333 0.1333333333333333 0  0.4666666666666667 0.1333333333333333 0  0.5 0.1333333333333333 0  0.5333333333333333 0.1333333333333333 0  0.5666666666666667 0.1333333333333333 0  0.6 0.1333333333333333 0  0.6333333333333333 0.1333333333333333 0  0.6666666666666666 0.1333333333333333 0  0.7 0.1333333333333333 0  0.7333333333333333 0.1333333333333333 0  0.7666666666666667 0.1333333333333333 0  0.8 0.1333333333333333 0  0.8333333333333334 0.1333333333333333 0  0.8666666666666667 0.1333333333333333 0  0.9 0.1333333333333333 0  0.9333333333333333 0.1333333333333333 0  0.9666666666666667 0.1333333333333333 0  1 0.1333333333333333 0  0 0.1666666666666667 0  0.03333333333333333 0.1666666666666667 0  0.06666666666666667 0.1666666666666667 0  0.1 0.1666666666666667 0  0.1333333333333333 0.1666666666666667 0  0.1666666666666667 0.1666666666666667 0  0.2 0.1666666666666667 0  0.2333333333333333 0.1666666666666667 0  0.2666666666666667 0.1666666666666667 0  0.3 0.1666666666666667 0  0.3333333333333333 0.1666666666666667 0  0.3666666666666666 0.1666666666666667 0  0.4 0.1666666666666667 0  0.4333333333333333 0.1666666666666667 0  0.4666666666666667 0.1666666666666667 0  0.5 0.1666666666666667 0  0.5333333333333333 0.1666666666666667 0  0.5666666666666667 0.1666666666666667 0  0.6 0.1666666666666667 0  0.6333333333333333 0.1666666666666667 0  0.6666666666666666 0.1666666666666667 0  0.7 0.1666666666666667 0  0.7333333333333333 0.1666666666666667 0  0.7666666666666667 0.1666666666666667 0  0.8 0.1666666666666667 0  0.8333333333333334 0.1666666666666667 0  0.8666666666666667 0.1666666666666667 0  0.9 0.1666666666666667 0  0.9333333333333333 0.1666666666666667 0  0.9666666666666667 0.1666666666666667 0  1 0.1666666666666667 0  0 0.2 0  0.03333333333333333 0.2 0  0.06666666666666667 0.2 0  0.1 0.2 0  0.1333333333333333 0.2 0  0.1666666666666667 0.2 0  0.2 0.2 0  0.2333333333333333 0.2 0  0.2666666666666667 0.2 0  0.3 0.2 0  0.3333333333333333 0.2 0  0.3666666666666666 0.2 0  0.4 0.2 0  0.4333333333333333 0.2 0  0.4666666666666667 0.2 0  0.5 0.2 0  0.5333333333333333 0.2 0  0.5666666666666667 0.2 0  0.6 0.2 0  0.6333333333333333 0.2 0  0.6666666666666666 0.2 0  0.7 0.2 0  0.7333333333333333 0.2 0  0.7666666666666667 0.2 0  0.8 0.2 0  0.8333333333333334 0.2 0  0.8666666666666667 0.2 0  0.9 0.2 0  0.9333333333333333 0.2 0  0.9666666666666667 0.2 0  1 0.2 0  0 0.2333333333333333 0  0.03333333333333333 0.2333333333333333 0  0.06666666666666667 0.2333333333333333 0  0.1 0.2333333333333333 0  0.1333333333333333 0.2333333333333333 0  0.1666666666666667 0.2333333333333333 0  0.2 0.2333333333333333 0  0.2333333333333333 0.2333333333333333 0  0.2666666666666667 0.2333333333333333 0  0.3 0.2333333333333333 0  0.3333333333333333 0.2333333333333333 0  0.3666666666666666 0.2333333333333333 0  0.4 0.2333333333333333 0  0.4333333333333333 0.2333333333333333 0  0.4666666666666667 0.2333333333333333 0  0.5 0.2333333333333333 0  0.5333333333333333 0.2333333333333333 0  0.5666666666666667 0.2333333333333333 0  0.6 0.2333333333333333 0  0.6333333333333333 0.2333333333333333 0  0.6666666666666666 0.2333333333333333 0  0.7 0.2333333333333333 0  0.7333333333333333 0.2333333333333333 0  0.7666666666666667 0.2333333333333333 0  0.8 0.2333333333333333 0  0.8333333333333334 0.2333333333333333 0  0.8666666666666667 0.2333333333333333 0  0.9 0.2333333333333333 0  0.9333333333333333 0.2333333333333333 0  0.9666666666666667 0.2333333333333333 0  1 0.2333333333333333 0  0 0.2666666666666667 0  0.03333333333333333 0.2666666666666667 0  0.06666666666666667 0.2666666666666667 0  0.1 0.2666666666666667 0  0.1333333333333333 0.2666666666666667 0  0.1666666666666667 0.2666666666666667 0  0.2 0.2666666666666667 0  0.2333333333333333 0.2666666666666667 0  0.2666666666666667 0.2666666666666667 0  0.3 0.2666666666666667 0  0.3333333333333333 0.2666666666666667 0  0.3666666666666666 0.2666666666666667 0  0.4 0.2666666666666667 0  0.4333333333333333 0.2666666666666667 0  0.4666666666666667 0.2666666666666667 0  0.5 0.2666666666666667 0  0.5333333333333333 0.2666666666666667 0  0.5666666666666667 0.2666666666666667 0  0.6 0.2666666666666667 0  0.6333333333333333 0.2666666666666667 0  0.6666666666666666 0.2666666666666667 0  0.7 0.2666666666666667 0  0.7333333333333333 0.2666666666666667 0  0.7666666666666667 0.2666666666666667 0  0.8 0.2666666666666667 0  0.8333333333333334 0.2666666666666667 0  0.8666666666666667 0.2666666666666667 0  0.9 0.2666666666666667 0  0.9333333333333333 0.2666666666666667 0  0.9666666666666667 0.2666666666666667 0  1 0.2666666666666667 0  0 0.3 0  0.03333333333333333 0.3 0  0.06666666666666667 0.3 0  0.1 0.3 0  0.1333333333333333 0.3 0  0.1666666666666667 0.3 0  0.2 0.3 0  0.2333333333333333 0.3 0  0.2666666666666667 0.3 0  0.3 0.3 0  0.3333333333333333 0.3 0  0.3666666666666666 0.3 0  0.4 0.3 0  0.4333333333333333 0.3 0  0.4666666666666667 0.3 0  0.5 0.3 0  0.5333333333333333 0.3 0  0.5666666666666667 0.3 0  0.6 0.3 0  0.6333333333333333 0.3 0  0.6666666666666666 0.3 0  0.7 0.3 0  0.7333333333333333 0.3 0  0.7666666666666667 0.3 0  0.8 0.3 0  0.8333333333333334 0.3 0  0.8666666666666667 0.3 0  0.9 0.3 0  0.9333333333333333 0.3 0  0.9666666666666667 0.3 0  1 0.3 0  0 0.3333333333333333 0  0.03333333333333333 0.3333333333333333 0  0.06666666666666667 0.3333333333333333 0  0.1 0.3333333333333333 0  0.1333333333333333 0.3333333333333333 0  0.1666666666666667 0.3333333333333333 0  0.2 0.3333333333333333 0  0.2333333333333333 0.3333333333333333 0  0.2666666666666667 0.3333333333333333 0  0.3 0.3333333333333333 0  0.3333333333333333 0.3333333333333333 0  0.3666666666666666 0.3333333333333333 0  0.4 0.3333333333333333 0  0.4333333333333333 0.3333333333333333 0  0.4666666666666667 0.3333333333333333 0  0.5 0.3333333333333333 0  0.5333333333333333 0.33333333333333
[...]
<PointData  Scalars="q_f"> 
<DataArray  type="Float64"  Name="q_f"  format="ascii">9.9873977896807875e-01  9.9873977896820254e-01  9.9873977896809829e-01  9.9873977896808497e-01  9.9873977896807542e-01  9.9873977896817689e-01  9.9873977896813149e-01  9.9873977896811850e-01  9.9873977896814126e-01  9.9873977896812183e-01  9.9873977896816046e-01  9.9873977896808108e-01  9.9873977896913035e-01  9.9873977896817590e-01  9.9873977896807842e-01  9.9873977896813126e-01  9.9873977896810684e-01  9.9873977896816779e-01  9.9873977896810961e-01  9.9873977896817256e-01  9.9873977896817701e-01  9.9873977896812605e-01  9.9873977896797417e-01  9.9873977896707855e-01  9.9873977896801480e-01  9.9873977896809008e-01  9.9873977896807631e-01  9.9873977896805488e-01  9.9873977896812527e-01  9.9873977896805544e-01  9.9873977896807875e-01  9.9884873013267950e-01  9.9884873013265962e-01  9.9884873013265574e-01  9.9884873013264730e-01  9.9884873013258024e-01  9.9884873013261233e-01  9.9884873013260966e-01  9.9884873013261521e-01  9.9884873013267206e-01  9.9884873013263920e-01  9.9884873013271891e-01  9.9884873013366804e-01  9.9884873013360809e-01  9.9884873013266207e-01  9.9884873013267006e-01  9.9884873013264464e-01  9.9884873013260977e-01  9.9884873013261999e-01  9.9884873013263364e-01  9.9884873013262188e-01  9.9884873013260456e-01  9.9884873013256148e-01  9.9884873013157038e-01  9.9884873013162412e-01  9.9884873013267439e-01  9.9884873013264264e-01  9.9884873013266917e-01  9.9884873013264386e-01  9.9884873013260689e-01  9.9884873013259656e-01  9.9884873013267950e-01  9.9915674570647472e-01  9.9915674570651336e-01  9.9915674570655821e-01  9.9915674570649615e-01  9.9915674570652191e-01  9.9915674570654811e-01  9.9915674570643165e-01  9.9915674570644242e-01  9.9915674570648283e-01  9.9915674570654944e-01  9.9915674570650981e-01  9.9915674570762747e-01  9.9915674570733248e-01  9.9915674570655366e-01  9.9915674570651980e-01  9.9915674570646096e-01  9.9915674570649848e-01  9.9915674570649515e-01  9.9915674570654378e-01  9.9915674570639645e-01  9.9915674570640645e-01  9.9915674570640700e-01  9.9915674570536062e-01  9.9915674570562496e-01  9.9915674570646551e-01  9.9915674570650415e-01  9.9915674570648305e-01  9.9915674570647628e-01  9.9915674570648860e-01  9.9915674570647828e-01  9.9915674570647472e-01  9.9961056869335341e-01  9.9961056869338105e-01  9.9961056869337361e-01  9.9961056869328035e-01  9.9961056869341225e-01  9.9961056869330012e-01  9.9961056869327447e-01  9.9961056869335563e-01  9.9961056869328657e-01  9.9961056869341691e-01  9.9961056869335974e-01  9.9961056869428611e-01  9.9961056869327314e-01  9.9961056869332954e-01  9.9961056869335041e-01  9.9961056869328946e-01  9.9961056869336173e-01  9.9961056869342590e-01  9.9961056869333420e-01  9.9961056869330089e-01  9.9961056869332288e-01  9.9961056869319198e-01  9.9961056869225828e-01  9.9961056869330511e-01  9.9961056869323772e-01  9.9961056869331144e-01  9.9961056869338472e-01  9.9961056869322540e-01  9.9961056869337750e-01  9.9961056869345877e-01  9.9961056869335341e-01  1.0001317305098318e+00  1.0001317305098409e+00  1.0001317305098780e+00  1.0001317305097215e+00  1.0001317305096851e+00  1.0001317305097424e+00  1.0001317305097226e+00  1.0001317305098640e+00  1.0001317305097137e+00  1.0001317305097395e+00  1.0001317305098116e+00  1.0001317305098201e+00  1.0001317305097128e+00  1.0001317305097546e+00  1.0001317305097197e+00  1.0001317305097337e+00  1.0001317305097948e+00  1.0001317305097963e+00  1.0001317305097521e+00  1.0001317305097910e+00  1.0001317305097293e+00  1.0001317305097039e+00  1.0001317305096120e+00  1.0001317305097741e+00  1.0001317305097046e+00  1.0001317305097777e+00  1.0001317305097692e+00  1.0001317305097324e+00  1.0001317305097599e+00  1.0001317305097919e+00  1.0001317305098318e+00  1.0006301179018957e+00  1.0006301179018409e+00  1.0006301179019215e+00  1.0006301179019277e+00  1.0006301179019230e+00  1.0006301179019184e+00  1.0006301179018950e+00  1.0006301179018617e+00  1.0006301179019059e+00  1.0006301179018959e+00  1.0006301179018740e+00  1.0006301179018509e+00  1.0006301179019108e+00  1.0006301179018908e+00  1.0006301179018409e+00  1.0006301179019184e+00  1.0006301179018602e+00  1.0006301179019081e+00  1.0006301179019088e+00  1.0006301179019086e+00  1.0006301179019532e+00  1.0006301179018589e+00  1.0006301179020010e+00  1.0006301179017971e+00  1.0006301179019301e+00  1.0006301179018702e+00  1.0006301179019290e+00  1.0006301179018922e+00  1.0006301179018791e+00  1.0006301179019004e+00  1.0006301179018957e+00  1.0010195541144427e+00  1.0010195541144100e+00  1.0010195541143969e+00  1.0010195541144131e+00  1.0010195541144480e+00  1.0010195541145270e+00  1.0010195541145079e+00  1.0010195541145350e+00  1.0010195541144098e+00  1.0010195541145068e+00  1.0010195541144506e+00  1.0010195541145732e+00  1.0010195541143991e+00  1.0010195541144857e+00  1.0010195541145186e+00  1.0010195541143405e+00  1.0010195541144769e+00  1.0010195541144711e+00  1.0010195541144222e+00  1.0010195541144840e+00  1.0010195541144262e+00  1.0010195541144411e+00  1.0010195541144236e+00  1.0010195541143854e+00  1.0010195541144544e+00  1.0010195541145304e+00  1.0010195541144653e+00  1.0010195541145144e+00  1.0010195541144820e+00  1.0010195541144948e+00  1.0010195541144427e+00  1.0012327003329160e+00  1.0012327003328694e+00  1.0012327003328754e+00  1.0012327003329091e+00  1.0012327003328250e+00  1.0012327003329708e+00  1.0012327003328969e+00  1.0012327003328361e+00  1.0012327003328700e+00  1.0012327003327852e+00  1.0012327003328541e+00  1.0012327003328867e+00  1.0012327003329018e+00  1.0012327003328849e+00  1.0012327003327972e+00  1.0012327003328383e+00  1.0012327003328456e+00  1.0012327003327564e+00  1.0012327003328934e+00  1.0012327003327985e+00  1.0012327003329071e+00  1.0012327003329005e+00  1.0012327003328501e+00  1.0012327003329431e+00  1.0012327003328374e+00  1.0012327003328589e+00  1.0012327003327424e+00  1.0012327003329968e+00  1.0012327003328172e+00  1.0012327003328767e+00  1.0012327003329160e+00  1.0012327003328596e+00  1.0012327003329449e+00  1.0012327003328012e+00  1.0012327003328487e+00  1.0012327003328791e+00  1.0012327003329684e+00  1.0012327003329478e+00  1.0012327003329227e+00  1.0012327003329420e+00  1.0012327003328756e+00  1.0012327003329085e+00  1.0012327003328112e+00  1.0012327003328565e+00  1.0012327003328310e+00  1.0012327003329320e+00  1.0012327003329082e+00  1.0012327003328472e+00  1.0012327003329042e+00  1.0012327003329227e+00  1.0012327003329133e+00  1.0012327003328405e+00  1.0012327003329780e+00  1.0012327003329820e+00  1.0012327003328740e+00  1.0012327003328589e+00  1.0012327003328305e+00  1.0012327003329473e+00  1.0012327003329029e+00  1.0012327003328529e+00  1.0012327003328818e+00  1.0012327003328596e+00  1.0010195541145386e+00  1.0010195541145055e+00  1.0010195541144256e+00  1.0010195541145903e+00  1.0010195541145746e+00  1.0010195541144533e+00  1.0010195541145732e+00  1.0010195541145273e+00  1.0010195541146336e+00  1.0010195541145228e+00  1.0010195541146032e+00  1.0010195541144495e+00  1.0010195541145166e+00  1.0010195541145386e+00  1.0010195541146039e+00  1.0010195541145535e+00  1.0010195541145943e+00  1.0010195541144904e+00  1.0010195541145128e+00  1.0010195541146001e+00  1.0010195541145730e+00  1.0010195541145572e+00  1.0010195541145419e+00  1.0010195541145681e+00  1.0010195541145914e+00  1.0010195541145510e+00  1.0010195541145732e+00  1.0010195541145435e+00  1.0010195541145257e+00  1.0010195541146263e+00  1.0010195541145386e+00  1.0006301179018546e+00  1.0006301179017576e+00  1.0006301179018315e+00  1.0006301179016865e+00  1.0006301179017862e+00  1.0006301179018668e+00  1.0006301179018884e+00  1.0006301179018888e+00  1.0006301179018338e+00  1.0006301179018671e+00  1.0006301179019559e+00  1.0006301179019332e+00  1.0006301179019204e+00  1.0006301179018491e+00  1.0006301179019059e+00  1.0006301179018586e+00  1.0006301179018771e+00  1.0006301179019730e+00  1.0006301179018082e+00  1.0006301179018522e+00  1.0006301179018409e+00  1.0006301179017971e+00  1.0006301179019366e+00  1.0006301179019119e+00  1.0006301179019479e+00  1.0006301179019141e+00  1.0006301179018231e+00  1.0006301179018369e+00  1.0006301179018329e+00  1.0006301179017840e+00  1.0006301179018546e+00  1.0001317305098310e+00  1.0001317305088890e+00  1.0001317305086972e+00  1.0001317305087702e+00  1.0001317305098554e+00  1.0001317305099064e+00  1.0001317305099366e+00  1.0001317305098678e+00  1.0001317305099779e+00  1.0001317305099240e+00  1.0001317305099742e+00  1.0001317305098927e+00  1.0001317305099138e+00  1.0001317305098847e+00  1.0001317305098472e+00  1.0001317305099708e+00  1.0001317305098596e+00  1.0001317305098705e+00  1.0001317305099739e+00  1.0001317305098887e+00  1.0001317305098318e+00  1.0001317305099298e+00  1.0001317305099022e+00  1.0001317305099333e+00  1.0001317305099946e+00  1.0001317305098882e+00  1.0001317305099429e+00  1.0001317305098487e+00  1.0001317305098620e+00  1.0001317305100152e+00  1.0001317305098310e+00  9.9961056869223353e-01  9.9961056869226605e-01  9.9961056869234399e-01  9.9961056869340181e-01  9.9961056869335274e-01  9.9961056869329434e-01  9.9961056869327347e-01  9.9961056869335640e-01  9.9961056869327958e-01  9.9961056869334353e-01  9.9961056869329556e-01  9.9961056869323717e-01  9.9961056869328757e-01  9.9961056869337461e-01  9.9961056869323872e-01  9.9961056869331688e-01  9.9961056869322984e-01  9.9961056869329445e-01  9.9961056869326192e-01  9.9961056869337606e-01  9.9961056869334908e-01  9.9961056869336806e-01  9.9961056869321274e-01  9.9961056869333353e-01  9.9961056869328757e-01  9.9961056869337050e-01  9.9961056869331977e-01  9.9961056869326637e-01  9.9961056869329712e-01  9.9961056869327269e-01  9.9961056869223353e-01  9.9915674570643731e-01  9.9915674570649782e-01  9.9915674570649604e-01  9.9915674570649771e-01  9.9915674570656909e-01  9.9915674570655522e-01  9.9915674570657442e-01  9.9915674570651392e-01  9.9915674570657609e-01  9.9915674570656010e-01  9.9915674570652935e-01  9.9915674570664004e-01  9.9915674570655311e-01  9.9915674570659863e-01  9.9915674570656154e-01  9.9915674570652502e-01  9.9915674570654323e-01  9.9915674570660640e-01  9.9915674570651258e-01  9.9915674570656376e-01  9.9915674570655977e-01  9.9915674570652346e-01  9.9915674570662405e-01  9.9915674570660040e-01  9.9915674570664570e-01  9.9915674570654422e-01  9.9915674570656965e-01  9.9915674570658553e-01  9.9915674570652657e-01  9.9915674570656310e-01  9.9915674570643731e-01  9.9884873013265074e-01  9.9884873013264874e-01  9.9884873013265985e-01  9.9884873013260256e-01  9.9884873013268061e-01  9.9884873013269126e-01  9.9884873013266995e-01  9.9884873013265529e-01  9.9884873013271347e-01  9.9884873013270592e-01  9.9884873013261555e-01  9.9884873013264008e-01  9.9884873013264486e-01  9.9884873013265718e-01  9.9884873013261299e-01  9.9884873013263065e-01  9.9884873013264230e-01  9.9884873013266895e-01  9.9884873013248476e-01  9.9884873013268494e-01  9.9884873013261122e-01  9.9884873013261655e-01  9.9884873013263786e-01  9.9884873013256970e-01  9.9884873013264963e-01  9.9884873013263353e-01  9.9884873013254927e-01  9.9884873013262676e-01  9.9884873013264586e-01  9.9884873013267395e-01  9.9884873013265074e-01  9.9873977896809962e-01  9.9873977896815880e-01  9.9873977896805533e-01  9.9873977896811528e-01  9.9873977896812061e-01  9.9873977896810240e-01  9.9873977896814214e-01  9.9873977896814026e-01  9.9873977896816679e-01  9.9873977896807908e-01  9.9873977896808941e-01  9.9873977896810029e-01  9.9873977896817234e-01  9.9873977896811872e-01  9.9873977896803645e-01  9.9873977896816268e-01  9.9873977896807697e-01  9.9873977896813282e-01  9.9873977896807642e-01  9.9873977896805355e-01  9.9873977896806299e-01  9.9873977896808985e-01  9.9873977896808852e-01  9.9873977896817323e-01  9.9873977896812305e-01  9.9873977896812016e-01  9.9873977896808641e-01  9.9873977896807364e-01  9.9873977896803146e-01  9.9873977896802979e-01  9.9873977896809962e-01  9.9884873013255737e-01  9.9884873013260200e-01  9.9884873013259501e-01  9.9884873013254716e-01  9.9884873013257713e-01  9.9884873013267717e-01  9.9884873013257669e-01  9.9884873013258035e-01  9.9884873013252728e-01  9.9884873013254116e-01  9.9884873013251851e-01  9.9884873013255659e-01  9.9884873013251674e-01  9.9884873013258646e-01  9.9884873013258346e-01  9.9884873013259601e-01  9.9884873013254327e-01  9.9884873013258524e-01  9.9884873013243913e-01  9.9884873013245334e-01  9.9884873013253295e-01  9.9884873013254394e-01  9.9884873013261066e-01  9.9884873013255737e-01  9.9884873013252162e-01  9.9884873013260256e-01  9.9884873013252362e-01  9.9884873013250564e-01  9.9884873013248932e-01  9.9884873013255970e-01  9.9884873013255737e-01  9.9915674570653146e-01  9.9915674570649693e-01  9.9915674570659763e-01  9.9915674570652913e-01  9.9915674570651591e-01  9.9915674570648449e-01  9.9915674570654156e-01  9.9915674570651924e-01  9.9915674570654245e-01  9.9915674570650292e-01  9.9915674570647794e-01  9.9915674570654966e-01  9.9915674570652424e-01  9.9915674570654311e-01  9.9915674570647572e-01  9.9915674570644486e-01  9.9915674570650481e-01  9.9915674570648638e-01  9.9915674570644386e-01  9.9915674570645530e-01  9.9915674570645097e-01  9.9915674570650737e-01  9.9915674570647550e-01  9.9915674570656121e-01  9.9915674570650481e-01  9.9915674570646518e-01  9.9915674570641244e-01  9.9915674570652335e-01  9.9915674570645174e-01  9.9915674570649171e-01  9.9915674570653146e-01  9.9961056869338538e-01  9.9961056869340081e-01  9.9961056869326581e-01  9.9961056869337916e-01  9.9961056869333831e-01  9.9961056869332465e-01  9.9961056869332066e-01  9.9961056869338438e-01  9.9961056869340215e-01  9.9961056869323395e-01  9.9961056869332920e-01  9.9961056869327858e-01  9.9961056869333387e-01  9.9961056869324894e-01  9.9961056869341824e-01  9.9961056869332821e-01  9.9961056869334175e-01  9.9961056869331011e-01  9.9961056869341824e-01  9.9961056869326981e-01  9.9961056869341458e-01  9.9961056869332521e-01  9.9961056869339937e-01  9.9961056869329512e-01  9.9961056869327258e-01  9.9961056869336584e-01  9.9961056869335274e-01  9.9961056869330667e-01  9.9961056869344389e-01  9.9961056869332243e-01  9.9961056869338538e-01  1.0001317305098405e+00  1.0001317305099096e+00  1.0001317305097495e+00  1.0001317305097426e+00  1.0001317305096982e+00  1.0001317305097253e+00  1.0001317305098412e+00  1.0001317305097646e+00  1.0001317305097877e+00  1.0001317305097777e+00  1.0001317305097916e+00  1.0001317305097386e+00  1.0001317305097372e+00  1.0001317305097108e+00  1.0001317305096811e+00  1.0001317305097805e+00  1.0001317305097503e+00  1.0001317305097446e+00  1.0001317305098143e+00  1.0001317305096387e+00  1.0001317305097654e+00  1.0001317305097219e+00  1.0001317305097688e+00  1.0001317305096882e+00  1.0001317305097148e+00  1.0001317305097301e+00  1.0001317305096662e+00  1.0001317305097570e+00  1.0001317305097415e+00  1.0001317305096808e+00  1.0001317305098405e+00  1.0006301179018640e+00  1.0006301179019035e+00  1.0006301179018817e+00  1.0006301179019688e+00  1.0006301179018899e+00  1.0006301179018684e+00  1.0006301179019390e+00  1.0006301179019008e+00  1.0006301179019002e+00  1.0006301179019450e+00  1.0006301179019434e+00  1.0006301179018431e+00  1.0006301179018702e+00  1.0006301179019357e+00  1.0006301179018304e+00  1.0006301179018944e+00  1.0006301179018919e+00  1.0006301179018577e+00  1.0006301179019104e+00  1.0006301179019328e+00  1.0006301179019474e+00  1.0006301179018402e+00  1.0006301179018746e+00  1.0006301179019130e+00  1.0006301179018131e+00  1.0006301179019430e+00  1.0006301179017916e+00  1.0006301179018413e+00  1.0006301179019006e+00  1.0006301179019308e+00  1.0006301179018640e+00  1.0010195541145581e+00  1.0010195541145801e+00  1.0010195541144831e+00  1.0010195541145184e+00  1.0010195541143747e+00  1.0010195541144733e+00  1.0010195541144602e+00  1.0010195541144684e+00  1.0010195541144717e+00  1.0010195541144356e+00  1.0010195541144842e+00  1.0010195541144775e+00  1.0010195541144979e+00  1.0010195541144979e+00  1.0010195541144304e+00  1.0010195541144078e+00  1.0010195541143885e+00  1.0010195541144267e+00  1.0010195541144382e+00  1.0010195541143698e+00  1.0010195541144269e+00  1.0010195541144002e+00  1.0010195541144380e+00  1.0010195541143836e+00  1.0010195541144653e+00  1.0010195541143452e+00  1.0010195541143594e+00  1.0010195541144509e+00  1.0010195541144298e+00  1.0010195541145257e+00  1.0010195541145581e+00  1.0012327003328481e+00  1.0012327003337074e+00  1.0012327003340398e+00  1.0012327003338282e+00  1.0012327003329113e+00  1.0012327003328707e+00  1.0012327003328421e+00  1.0012327003329007e+00  1.0012327003329413e+00  1.0012327003329535e+00  1.0012327003328017e+00  1.0012327003328010e+00  1.0012327003327699e+00  1.0012327003328065e+00  1.0012327003328998e+00  1.0012327003328259e+00  1.0012327003328887e+00  1.0012327003329036e+00  1.0012327003328725e+00  1.0012327003328461e+00  1.0012327003328900e+00  1.0012327003327994e+00  1.0012327003328698e+00  1.0012327003328980e+00  1.0012327003329602e+00  1.0012327003329038e+00  1.0012327003329164e+00  1.0012327003328454e+00  1.0012327003328525e+00  1.0012327003327575e+00  1.0012327003328481e+00  1.0012327003339339e+00  1.0012327003338801e+00  1.0012327003337287e+00  1.0012327003328010e+00  1.0012327003328743e+00  1.0012327003327726e+00  1.0012327003329056e+00  1.0012327003327921e+00  1.0012327003329151e+00  1.0012327003329140e+00  1.0012327003329233e+00  1.0012327003329868e+00  1.0012327003329795e+00  1.0012327003329036e+00  1.0012327003328862e+00  1.0012327003329191e+00  1.0012327003328152e+00  1.0012327003329045e+00  1.0012327003328148e+00  1.0012327003329164e+00  1.0012327003329027e+00  1.0012327003330395e+00  1.0012327003329349e+00  1.0012327003329125e+00  1.0012327003329087e+00  1.0012327003329484e+00  1.0012327003329056e+00  1.0012327003329302e+00  1.0012327003328862e+00  1.0012327003329751e+00  1.0012327003339339e+00  1.0010195541145555e+00  1.0010195541145657e+00  1.0010195541145366e+00  1.0010195541145275e+00  1.0010195541146569e+00  1.0010195541144478e+00  1.0010195541145237e+00  1.0010195541145630e+00  1.0010195541145048e+00  1.0010195541145872e+00  1.0010195541145166e+00  1.0010195541145790e+00  1.0010195541145517e+00  1.0010195541145053e+00  1.0010195541146130e+00  1.0010195541145606e+00  1.0010195541145324e+00  1.0010195541145268e+00  1.0010195541145499e+00  1.0010195541144706e+00  1.0010195541145164e+00  1.0010195541146465e+00  1.0010195541145792e+00  1.0010195541145193e+00  1.0010195541146014e+00  1.0010195541144362e+00  1.0010195541145739e+00  1.0010195541145241e+00  1.0010195541145461e+00  1.0010195541146691e+00  1.0010195541145555e+00  1.0006301179018733e+00  1.0006301179018418e+00  1.0006301179019230e+00  1.0006301179018708e+00  1.0006301179019408e+00  1.0006301179019890e+00  1.0006301179018393e+00  1.0006301179019166e+00  1.0006301179018764e+00  1.0006301179018375e+00  1.0006301179018529e+00  1.0006301179019512e+00  1.0006301179019599e+00  1.0006301179018164e+00  1.0006301179019401e+00  1.0006301179018851e+00  1.0006301179018753e+00  1.0006301179018631e+00  1.0006301179019039e+00  1.0006301179018109e+00  1.0006301179018264e+00  1.0006301179019279e+00  1.0006301179019510e+00  1.0006301179019201e+00  1.0006301179018928e+00  1.0006301179018449e+00  1.0006301179019452e+00  1.0006301179019395e+00  1.0006301179018349e+00  1.0006301179018555e+00  1.0006301179018733e+00  1.0001317305098592e+00  1.0001317305099344e+00  1.0001317305098270e+00  1.0001317305099393e+00  1.0001317305098874e+00  1.0001317305099224e+00  1.0001317305099464e+00  1.0001317305098605e+00  1.0001317305099471e+00  1.0001317305098689e+00  1.0001317305098847e+00  1.0001317305098416e+00  1.0001317305098520e+00  1.0001317305099660e+00  1.0001317305099229e+00  1.0001317305098487e+00  1.0001317305098667e+00  1.0001317305099438e+00  1.0001317305099517e+00  1.0001317305099671e+00  1.0001317305098563e+00  1.0001317305099342e+00  1.0001317305098638e+00  1.0001317305099882e+0