<?xml version="1.0"?>
<VTKFile type="UnstructuredGrid"  version="0.1"  >
<UnstructuredGrid>
<Piece  NumberOfPoints="961" NumberOfCells="1800">
<Points>
<DataArray  type="Float64"  NumberOfComponents="3"  format="ascii">0 0 0  0.03333333333333333 0 0  0.06666666666666667 0 0  0.1 0 0  0.1333333333333333 0 0  0.1666666666666667 0 0  0.2 0 0  0.2333333333333333 0 0  0.2666666666666667 0 0  0.3 0 0  0.3333333333333333 0 0  0.3666666666666666 0 0  0.4 0 0  0.4333333333333333 0 0  0.4666666666666667 0 0  0.5 0 0  0.5333333333333333 0 0  0.5666666666666667 0 0  0.6 0 0  0.6333333333333333 0 0  0.6666666666666666 0 0  0.7 0 0  0.7333333333333333 0 0  0.7666666666666667 0 0  0.8 0 0  0.8333333333333334 0 0  0.8666666666666667 0 0  0.9 0 0  0.9333333333333333 0 0  0.9666666666666667 0 0  1 0 0  0 0.03333333333333333 0  0.03333333333333333 0.03333333333333333 0  0.06666666666666667 0.03333333333333333 0  0.1 0.03333333333333333 0  0.1333333333333333 0.03333333333333333 0  0.1666666666666667 0.03333333333333333 0  0.2 0.03333333333333333 0  0.2333333333333333 0.03333333333333333 0  0.2666666666666667 0.03333333333333333 0  0.3 0.03333333333333333 0  0.3333333333333333 0.03333333333333333 0  0.3666666666666666 0.03333333333333333 0  0.4 0.03333333333333333 0  0.4333333333333333 0.03333333333333333 0  0.4666666666666667 0.03333333333333333 0  0.5 0.03333333333333333 0  0.5333333333333333 0.03333333333333333 0  0.5666666666666667 0.03333333333333333 0  0.6 0.03333333333333333 0  0.6333333333333333 0.03333333333333333 0  0.6666666666666666 0.03333333333333333 0  0.7 0.03333333333333333 0  0.7333333333333333 0.03333333333333333 0  0.7666666666666667 0.03333333333333333 0  0.8 0.03333333333333333 0  0.8333333333333334 0.03333333333333333 0  0.8666666666666667 0.03333333333333333 0  0.9 0.03333333333333333 0  0.9333333333333333 0.03333333333333333 0  0.9666666666666667 0.03333333333333333 0  1 0.03333333333333333 0  0 0.06666666666666667 0  0.03333333333333333 0.06666666666666667 0  0.06666666666666667 0.06666666666666667 0  0.1 0.06666666666666667 0  0.1333333333333333 0.06666666666666667 0  0.1666666666666667 0.06666666666666667 0  0.2 0.06666666666666667 0  0.2333333333333333 0.06666666666666667 0  0.2666666666666667 0.06666666666666667 0  0.3 0.06666666666666667 0  0.3333333333333333 0.06666666666666667 0  0.3666666666666666 0.06666666666666667 0  0.4 0.06666666666666667 0  0.4333333333333333 0.06666666666666667 0  0.4666666666666667 0.06666666666666667 0  0.5 0.06666666666666667 0  0.5333333333333333 0.06666666666666667 0  0.5666666666666667 0.06666666666666667 0  0.6 0.06666666666666667 0  0.6333333333333333 0.06666666666666667 0  0.6666666666666666 0.06666666666666667 0  0.7 0.06666666666666667 0  0.7333333333333333 0.06666666666666667 0  0.7666666666666667 0.06666666666666667 0  0.8 0.06666666666666667 0  0.8333333333333334 0.06666666666666667 0  0.8666666666666667 0.06666666666666667 0  0.9 0.06666666666666667 0  0.9333333333333333 0.06666666666666667 0  0.9666666666666667 0.06666666666666667 0  1 0.06666666666666667 0  0 0.1 0  0.03333333333333333 0.1 0  0.06666666666666667 0.1 0  0.1 0.1 0  0.1333333333333333 0.1 0  0.1666666666666667 0.1 0  0.2 0.1 0  0.2333333333333333 0.1 0  0.2666666666666667 0.1 0  0.3 0.1 0  0.3333333333333333 0.1 0  0.3666666666666666 0.1 0  0.4 0.1 0  0.4333333333333333 0.1 0  0.4666666666666667 0.1 0  0.5 0.1 0  0.5333333333333333 0.1 0  0.5666666666666667 0.1 0  0.6 0.1 0  0.6333333333333333 0.1 0  0.6666666666666666 0.1 0  0.7 0.1 0  0.7333333333333333 0.1 0  0.7666666666666667 0.1 0  0.8 0.1 0  0.8333333333333334 0.1 0  0.8666666666666667 0.1 0  0.9 0.1 0  0.9333333333333333 0.1 0  0.9666666666666667 0.1 0  1 0.1 0  0 0.1333333333333333 0  0.03333333333333333 0.1333333333333333 0  0.06666666666666667 0.1333333333333333 0  0.1 0.1333333333333333 0  0.1333333333333333 0.1333333333333333 0  0.1666666666666667 0.1333333333333333 0  0.2 0.1333333333333333 0  0.2333333333333333 0.1333333333333333 0  0.2666666666666667 0.1333333333333333 0  0.3 0.1333333333333333 0  0.3333333333333333 0.1333333333333333 0  0.3666666666666666 0.1333333333333333 0  0.4 0.1333333333333333 0  0.4333333333333333 0.1333333333333333 0  0.4666666666666667 0.1333333333333333 0  0.5 0.1333333333333333 0  0.5333333333333333 0.1333333333333333 0  0.5666666666666667 0.1333333333333333 0  0.6 0.1333333333333333 0  0.6333333333333333 0.1333333333333333 0  0.6666666666666666 0.1333333333333333 0  0.7 0.1333333333333333 0  0.7333333333333333 0.1333333333333333 0  0.7666666666666667 0.1333333333333333 0  0.8 0.1333333333333333 0  0.8333333333333334 0.1333333333333333 0  0.8666666666666667 0.1333333333333333 0  0.9 0.1333333333333333 0  0.9333333333333333 0.1333333333333333 0  0.9666666666666667 0.1333333333333333 0  1 0.1333333333333333 0  0 0.1666666666666667 0  0.03333333333333333 0.1666666666666667 0  0.06666666666666667 0.1666666666666667 0  0.1 0.1666666666666667 0  0.1333333333333333 0.1666666666666667 0  0.1666666666666667 0.1666666666666667 0  0.2 0.1666666666666667 0  0.2333333333333333 0.1666666666666667 0  0.2666666666666667 0.1666666666666667 0  0.3 0.1666666666666667 0  0.3333333333333333 0.1666666666666667 0  0.3666666666666666 0.1666666666666667 0  0.4 0.1666666666666667 0  0.4333333333333333 0.1666666666666667 0  0.4666666666666667 0.1666666666666667 0  0.5 0.1666666666666667 0  0.5333333333333333 0.1666666666666667 0  0.5666666666666667 0.1666666666666667 0  0.6 0.1666666666666667 0  0.6333333333333333 0.1666666666666667 0  0.6666666666666666 0.1666666666666667 0  0.7 0.1666666666666667 0  0.7333333333333333 0.1666666666666667 0  0.7666666666666667 0.1666666666666667 0  0.8 0.1666666666666667 0  0.8333333333333334 0.1666666666666667 0  0.8666666666666667 0.1666666666666667 0  0.9 0.1666666666666667 0  0.9333333333333333 0.1666666666666667 0  0.9666666666666667 0.1666666666666667 0  1 0.1666666666666667 0  0 0.2 0  0.03333333333333333 0.2 0  0.06666666666666667 0.2 0  0.1 0.2 0  0.1333333333333333 0.2 0  0.1666666666666667 0.2 0  0.2 0.2 0  0.2333333333333333 0.2 0  0.2666666666666667 0.2 0  0.3 0.2 0  0.3333333333333333 0.2 0  0.3666666666666666 0.2 0  0.4 0.2 0  0.4333333333333333 0.2 0  0.4666666666666667 0.2 0  0.5 0.2 0  0.5333333333333333 0.2 0  0.5666666666666667 0.2 0  0.6 0.2 0  0.6333333333333333 0.2 0  0.6666666666666666 0.2 0  0.7 0.2 0  0.7333333333333333 0.2 0  0.7666666666666667 0.2 0  0.8 0.2 0  0.8333333333333334 0.2 0  0.8666666666666667 0.2 0  0.9 0.2 0  0.9333333333333333 0.2 0  0.9666666666666667 0.2 0  1 0.2 0  0 0.2333333333333333 0  0.03333333333333333 0.2333333333333333 0  0.06666666666666667 0.2333333333333333 0  0.1 0.2333333333333333 0  0.1333333333333333 0.2333333333333333 0  0.1666666666666667 0.2333333333333333 0  0.2 0.2333333333333333 0  0.2333333333333333 0.2333333333333333 0  0.2666666666666667 0.2333333333333333 0  0.3 0.2333333333333333 0  0.3333333333333333 0.2333333333333333 0  0.3666666666666666 0.2333333333333333 0  0.4 0.2333333333333333 0  0.4333333333333333 0.2333333333333333 0  0.4666666666666667 0.2333333333333333 0  0.5 0.2333333333333333 0  0.5333333333333333 0.2333333333333333 0  0.5666666666666667 0.2333333333333333 0  0.6 0.2333333333333333 0  0.6333333333333333 0.2333333333333333 0  0.6666666666666666 0.2333333333333333 0  0.7 0.2333333333333333 0  0.7333333333333333 0.2333333333333333 0  0.7666666666666667 0.2333333333333333 0  0.8 0.2333333333333333 0  0.8333333333333334 0.2333333333333333 0  0.8666666666666667 0.2333333333333333 0  0.9 0.2333333333333333 0  0.9333333333333333 0.2333333333333333 0  0.9666666666666667 0.2333333333333333 0  1 0.2333333333333333 0  0 0.2666666666666667 0  0.03333333333333333 0.2666666666666667 0  0.06666666666666667 0.2666666666666667 0  0.1 0.2666666666666667 0  0.1333333333333333 0.2666666666666667 0  0.1666666666666667 0.2666666666666667 0  0.2 0.2666666666666667 0  0.2333333333333333 0.2666666666666667 0  0.2666666666666667 0.2666666666666667 0  0.3 0.2666666666666667 0  0.3333333333333333 0.2666666666666667 0  0.3666666666666666 0.2666666666666667 0  0.4 0.2666666666666667 0  0.4333333333333333 0.2666666666666667 0  0.4666666666666667 0.2666666666666667 0  0.5 0.2666666666666667 0  0.5333333333333333 0.2666666666666667 0  0.5666666666666667 0.2666666666666667 0  0.6 0.2666666666666667 0  0.6333333333333333 0.2666666666666667 0  0.6666666666666666 0.2666666666666667 0  0.7 0.2666666666666667 0  0.7333333333333333 0.2666666666666667 0  0.7666666666666667 0.2666666666666667 0  0.8 0.2666666666666667 0  0.8333333333333334 0.2666666666666667 0  0.8666666666666667 0.2666666666666667 0  0.9 0.2666666666666667 0  0.9333333333333333 0.2666666666666667 0  0.9666666666666667 0.2666666666666667 0  1 0.2666666666666667 0  0 0.3 0  0.03333333333333333 0.3 0  0.06666666666666667 0.3 0  0.1 0.3 0  0.1333333333333333 0.3 0  0.1666666666666667 0.3 0  0.2 0.3 0  0.2333333333333333 0.3 0  0.2666666666666667 0.3 0  0.3 0.3 0  0.3333333333333333 0.3 0  0.3666666666666666 0.3 0  0.4 0.3 0  0.4333333333333333 0.3 0  0.4666666666666667 0.3 0  0.5 0.3 0  0.5333333333333333 0.3 0  0.5666666666666667 0.3 0  0.6 0.3 0  0.6333333333333333 0.3 0  0.6666666666666666 0.3 0  0.7 0.3 0  0.7333333333333333 0.3 0  0.7666666666666667 0.3 0  0.8 0.3 0  0.8333333333333334 0.3 0  0.8666666666666667 0.3 0  0.9 0.3 0  0.9333333333333333 0.3 0  0.9666666666666667 0.3 0  1 0.3 0  0 0.3333333333333333 0  0.03333333333333333 0.3333333333333333 0  0.06666666666666667 0.3333333333333333 0  0.1 0.3333333333333333 0  0.1333333333333333 0.3333333333333333 0  0.1666666666666667 0.3333333333333333 0  0.2 0.3333333333333333 0  0.2333333333333333 0.3333333333333333 0  0.2666666666666667 0.3333333333333333 0  0.3 0.3333333333333333 0  0.3333333333333333 0.3333333333333333 0  0.3666666666666666 0.3333333333333333 0  0.4 0.3333333333333333 0  0.4333333333333333 0.3333333333333333 0  0.4666666666666667 0.3333333333333333 0  0.5 0.3333333333333333 0  0.5333333333333333 0.33333333333333
[...]
<PointData  Vectors="u_f"> 
<DataArray  type="Float64"  Name="u_f"  NumberOfComponents="3" format="ascii">2.7097387743927259e-06 3.8041530097451121e-09 0.0000000000000000e+00  2.7097387748944404e-06 3.8041442484157764e-09 0.0000000000000000e+00  2.7097387748130711e-06 3.8041323827445704e-09 0.0000000000000000e+00  2.7097387688023084e-06 3.8041399385495105e-09 0.0000000000000000e+00  2.7097387760822923e-06 3.8041536853114857e-09 0.0000000000000000e+00  2.7097387823558656e-06 3.8041517197613672e-09 0.0000000000000000e+00  2.7097387759165178e-06 3.8041447553887123e-09 0.0000000000000000e+00  2.7097387687027245e-06 3.8041442920549139e-09 0.0000000000000000e+00  2.7097387745910807e-06 3.8041441797857789e-09 0.0000000000000000e+00  2.7097387738281818e-06 3.8041500803392622e-09 0.0000000000000000e+00  2.7097387813547675e-06 3.8041589786033322e-09 0.0000000000000000e+00  2.7097387767956974e-06 3.8041319866313067e-09 0.0000000000000000e+00  2.7097387616570909e-06 3.8041510156262663e-09 0.0000000000000000e+00  2.7097387791220158e-06 3.8041482999708748e-09 0.0000000000000000e+00  2.7097387788622409e-06 3.8041403627978206e-09 0.0000000000000000e+00  2.7097387708254839e-06 3.8041355526806722e-09 0.0000000000000000e+00  2.7097387787892199e-06 3.8041450661752650e-09 0.0000000000000000e+00  2.7097387797410952e-06 3.8041442686903570e-09 0.0000000000000000e+00  2.7097387742077068e-06 3.8041434351557268e-09 0.0000000000000000e+00  2.7097387737619371e-06 3.8041414556194003e-09 0.0000000000000000e+00  2.7097387814419374e-06 3.8041478385344302e-09 0.0000000000000000e+00  2.7097387722180874e-06 3.8041322925931598e-09 0.0000000000000000e+00  2.7097387797446189e-06 3.8041743297134722e-09 0.0000000000000000e+00  2.7097387942350351e-06 3.8041531809948452e-09 0.0000000000000000e+00  2.7097387735488371e-06 3.8041357468612813e-09 0.0000000000000000e+00  2.7097387746580844e-06 3.8041342329355778e-09 0.0000000000000000e+00  2.7097387682602616e-06 3.8041430857173666e-09 0.0000000000000000e+00  2.7097387756797823e-06 3.8041432551781662e-09 0.0000000000000000e+00  2.7097387782684776e-06 3.8041492260963705e-09 0.0000000000000000e+00  2.7097387832552113e-06 3.8041473989446593e-09 0.0000000000000000e+00  2.7097387743927801e-06 -8.9281200498462817e-10 0.0000000000000000e+00  4.1705400525940395e-04 8.3385688947256939e-09 0.0000000000000000e+00  4.1705400525251623e-04 8.3385689409127065e-09 0.0000000000000000e+00  4.1705400525669355e-04 8.3385765507109147e-09 0.0000000000000000e+00  4.1705400526205450e-04 8.3385855142439555e-09 0.0000000000000000e+00  4.1705400525488912e-04 8.3385828799579370e-09 0.0000000000000000e+00  4.1705400525476606e-04 8.3385847236437313e-09 0.0000000000000000e+00  4.1705400526644433e-04 8.3385879604208971e-09 0.0000000000000000e+00  4.1705400526004493e-04 8.3385852748521158e-09 0.0000000000000000e+00  4.1705400525776355e-04 8.3385937349900879e-09 0.0000000000000000e+00  4.1705400526410288e-04 8.3385916313126127e-09 0.0000000000000000e+00  4.1705400526088345e-04 8.3385975682952890e-09 0.0000000000000000e+00  4.1705400524935871e-04 8.3385612915411189e-09 0.0000000000000000e+00  4.1705400524656830e-04 8.3385722907721588e-09 0.0000000000000000e+00  4.1705400525659402e-04 8.3385832635486656e-09 0.0000000000000000e+00  4.1705400525367741e-04 8.3385827041003446e-09 0.0000000000000000e+00  4.1705400526367820e-04 8.3385913905113102e-09 0.0000000000000000e+00  4.1705400525594307e-04 8.3385867278998674e-09 0.0000000000000000e+00  4.1705400526178161e-04 8.3385775319138808e-09 0.0000000000000000e+00  4.1705400525885990e-04 8.3385832591034367e-09 0.0000000000000000e+00  4.1705400525539750e-04 8.3385856642975362e-09 0.0000000000000000e+00  4.1705400526168685e-04 8.3385711086665301e-09 0.0000000000000000e+00  4.1705400525068187e-04 8.3385765466993667e-09 0.0000000000000000e+00  4.1705400527634504e-04 8.3385992388339963e-09 0.0000000000000000e+00  4.1705400526045671e-04 8.3385877302447758e-09 0.0000000000000000e+00  4.1705400526752972e-04 8.3385854713095495e-09 0.0000000000000000e+00  4.1705400525514586e-04 8.3385981856400060e-09 0.0000000000000000e+00  4.1705400526294073e-04 8.3385817250657829e-09 0.0000000000000000e+00  4.1705400525254518e-04 8.3385910312067102e-09 0.0000000000000000e+00  4.1705400525914699e-04 8.3385778100117380e-09 0.0000000000000000e+00  4.1705400525567289e-04 8.3385804690175661e-09 0.0000000000000000e+00  4.1705400525940417e-04 -2.4044049715084074e-09 0.0000000000000000e+00  7.5928583912328481e-04 1.1398495840773959e-08 0.0000000000000000e+00  7.5928583911489124e-04 1.1398496098271975e-08 0.0000000000000000e+00  7.5928583911710323e-04 1.1398508566271698e-08 0.0000000000000000e+00  7.5928583912322897e-04 1.1398499211124832e-08 0.0000000000000000e+00  7.5928583912296497e-04 1.1398502444107290e-08 0.0000000000000000e+00  7.5928583912370450e-04 1.1398508422940171e-08 0.0000000000000000e+00  7.5928583912633575e-04 1.1398497516842097e-08 0.0000000000000000e+00  7.5928583912311253e-04 1.1398509268834706e-08 0.0000000000000000e+00  7.5928583912500153e-04 1.1398506591180600e-08 0.0000000000000000e+00  7.5928583912691851e-04 1.1398506853123845e-08 0.0000000000000000e+00  7.5928583912361083e-04 1.1398495955265708e-08 0.0000000000000000e+00  7.5928583910931497e-04 1.1398472470687711e-08 0.0000000000000000e+00  7.5928583910705842e-04 1.1398500033383760e-08 0.0000000000000000e+00  7.5928583912458466e-04 1.1398502274212810e-08 0.0000000000000000e+00  7.5928583911888240e-04 1.1398512274243128e-08 0.0000000000000000e+00  7.5928583912758746e-04 1.1398507046545513e-08 0.0000000000000000e+00  7.5928583912321444e-04 1.1398506540223098e-08 0.0000000000000000e+00  7.5928583912053278e-04 1.1398506823416706e-08 0.0000000000000000e+00  7.5928583912262279e-04 1.1398509710647091e-08 0.0000000000000000e+00  7.5928583912387613e-04 1.1398507205706392e-08 0.0000000000000000e+00  7.5928583912510377e-04 1.1398498821354151e-08 0.0000000000000000e+00  7.5928583911608169e-04 1.1398489918211172e-08 0.0000000000000000e+00  7.5928583913988665e-04 1.1398518085675192e-08 0.0000000000000000e+00  7.5928583912445813e-04 1.1398497728369941e-08 0.0000000000000000e+00  7.5928583912258777e-04 1.1398504467011704e-08 0.0000000000000000e+00  7.5928583912471758e-04 1.1398503668496804e-08 0.0000000000000000e+00  7.5928583912125301e-04 1.1398499240831972e-08 0.0000000000000000e+00  7.5928583912055815e-04 1.1398493760081570e-08 0.0000000000000000e+00  7.5928583911989461e-04 1.1398501812559525e-08 0.0000000000000000e+00  7.5928583912110274e-04 1.1398499759080610e-08 0.0000000000000000e+00  7.5928583912328524e-04 -3.4812165413120350e-09 0.0000000000000000e+00  9.7023027527097603e-04 1.2529886467575399e-08 0.0000000000000000e+00  9.7023027527688341e-04 1.2529885366025992e-08 0.0000000000000000e+00  9.7023027527507366e-04 1.2529891604958973e-08 0.0000000000000000e+00  9.7023027527662386e-04 1.2529887210470728e-08 0.0000000000000000e+00  9.7023027526911706e-04 1.2529889973885225e-08 0.0000000000000000e+00  9.7023027528133124e-04 1.2529887643067394e-08 0.0000000000000000e+00  9.7023027527793596e-04 1.2529890450066819e-08 0.0000000000000000e+00  9.7023027526945533e-04 1.2529876182399910e-08 0.0000000000000000e+00  9.7023027527267216e-04 1.2529886410112684e-08 0.0000000000000000e+00  9.7023027527107556e-04 1.2529882282988694e-08 0.0000000000000000e+00  9.7023027527796003e-04 1.2529883602462738e-08 0.0000000000000000e+00  9.7023027526478632e-04 1.2529893383917898e-08 0.0000000000000000e+00  9.7023027527952345e-04 1.2529885383156386e-08 0.0000000000000000e+00  9.7023027527124426e-04 1.2529886267865359e-08 0.0000000000000000e+00  9.7023027527672295e-04 1.2529888686720406e-08 0.0000000000000000e+00  9.7023027527965897e-04 1.2529897578262422e-08 0.0000000000000000e+00  9.7023027527613033e-04 1.2529894314380202e-08 0.0000000000000000e+00  9.7023027527753220e-04 1.2529880826905176e-08 0.0000000000000000e+00  9.7023027526819592e-04 1.2529884753018083e-08 0.0000000000000000e+00  9.7023027528429307e-04 1.2529882798852088e-08 0.0000000000000000e+00  9.7023027527269948e-04 1.2529894833062521e-08 0.0000000000000000e+00  9.7023027527406384e-04 1.2529895330277638e-08 0.0000000000000000e+00  9.7023027528499520e-04 1.2529885885792513e-08 0.0000000000000000e+00  9.7023027527320255e-04 1.2529888429113969e-08 0.0000000000000000e+00  9.7023027527413886e-04 1.2529886872850171e-08 0.0000000000000000e+00  9.7023027527496915e-04 1.2529897374649254e-08 0.0000000000000000e+00  9.7023027526983436e-04 1.2529886140796864e-08 0.0000000000000000e+00  9.7023027527699444e-04 1.2529880172914426e-08 0.0000000000000000e+00  9.7023027526891344e-04 1.2529883060361652e-08 0.0000000000000000e+00  9.7023027527210013e-04 1.2529880987367098e-08 0.0000000000000000e+00  9.7023027527097646e-04 -3.9610102624282272e-09 0.0000000000000000e+00  1.0134131140450294e-03 1.1572296381573421e-08 0.0000000000000000e+00  1.0134131140505907e-03 1.1572289497756988e-08 0.0000000000000000e+00  1.0134131140464163e-03 1.1572302826179555e-08 0.0000000000000000e+00  1.0134131140550238e-03 1.1572306166931709e-08 0.0000000000000000e+00  1.0134131140590503e-03 1.1572303361233327e-08 0.0000000000000000e+00  1.0134131140518538e-03 1.1572301433955545e-08 0.0000000000000000e+00  1.0134131140509509e-03 1.1572298174952235e-08 0.0000000000000000e+00  1.0134131140435644e-03 1.1572289698551230e-08 0.0000000000000000e+00  1.0134131140528725e-03 1.1572306400577277e-08 0.0000000000000000e+00  1.0134131140611003e-03 1.1572296566863573e-08 0.0000000000000000e+00  1.0134131140481604e-03 1.1572289401262995e-08 0.0000000000000000e+00  1.0134131140461017e-03 1.1572289810440894e-08 0.0000000000000000e+00  1.0134131140480691e-03 1.1572297184641971e-08 0.0000000000000000e+00  1.0134131140522404e-03 1.1572292725860536e-08 0.0000000000000000e+00  1.0134131140466943e-03 1.1572294336009183e-08 0.0000000000000000e+00  1.0134131140551836e-03 1.1572291444116728e-08 0.0000000000000000e+00  1.0134131140461422e-03 1.1572284972188700e-08 0.0000000000000000e+00  1.0134131140437143e-03 1.1572300239381592e-08 0.0000000000000000e+00  1.0134131140515827e-03 1.1572299012389993e-08 0.0000000000000000e+00  1.0134131140462485e-03 1.1572297382183606e-08 0.0000000000000000e+00  1.0134131140512276e-03 1.1572293606774801e-08 0.0000000000000000e+00  1.0134131140559556e-03 1.1572292787226379e-08 0.0000000000000000e+00  1.0134131140492821e-03 1.1572298796200080e-08 0.0000000000000000e+00  1.0134131140519006e-03 1.1572294820864394e-08 0.0000000000000000e+00  1.0134131140431474e-03 1.1572285954150607e-08 0.0000000000000000e+00  1.0134131140477826e-03 1.1572290921748121e-08 0.0000000000000000e+00  1.0134131140508455e-03 1.1572283898069607e-08 0.0000000000000000e+00  1.0134131140452742e-03 1.1572284670672076e-08 0.0000000000000000e+00  1.0134131140375840e-03 1.1572291958353818e-08 0.0000000000000000e+00  1.0134131140498116e-03 1.1572301955890471e-08 0.0000000000000000e+00  1.0134131140450298e-03 -3.7774764550573585e-09 0.0000000000000000e+00  8.8136763522985090e-04 8.6632617350484650e-09 0.0000000000000000e+00  8.8136763523999882e-04 8.6632639088738209e-09 0.0000000000000000e+00  8.8136763522852081e-04 8.6632636882386788e-09 0.0000000000000000e+00  8.8136763523027049e-04 8.6632654294673678e-09 0.0000000000000000e+00  8.8136763523444348e-04 8.6632585656002542e-09 0.0000000000000000e+00  8.8136763523445996e-04 8.6632597971455019e-09 0.0000000000000000e+00  8.8136763523051151e-04 8.6632521847452085e-09 0.0000000000000000e+00  8.8136763523500889e-04 8.6632626209500602e-09 0.0000000000000000e+00  8.8136763522154342e-04 8.6632619228322813e-09 0.0000000000000000e+00  8.8136763523537502e-04 8.6632690097197818e-09 0.0000000000000000e+00  8.8136763523833294e-04 8.6632571168893113e-09 0.0000000000000000e+00  8.8136763522625677e-04 8.6632673563114687e-09 0.0000000000000000e+00  8.8136763523647072e-04 8.6632691268136164e-09 0.0000000000000000e+00  8.8136763523865235e-04 8.6632531999921228e-09 0.0000000000000000e+00  8.8136763522739530e-04 8.6632616044021032e-09 0.0000000000000000e+00  8.8136763523186904e-04 8.6632625831114043e-09 0.0000000000000000e+00  8.8136763522861828e-04 8.6632591518283689e-09 0.0000000000000000e+00  8.8136763522637539e-04 8.6632707067130221e-09 0.0000000000000000e+00  8.8136763524572362e-04 8.6632644876209405e-09 0.0000000000000000e+00  8.8136763523152166e-04 8.6632604575330452e-09 0.0000000000000000e+00  8.8136763523101187e-04 8.6632606152844613e-09 0.0000000000000000e+00  8.8136763523690527e-04 8.6632486800616859e-09 0.0000000000000000e+00  8.8136763522404294e-04 8.6632574826991243e-09 0.0000000000000000e+00  8.8136763523746797e-04 8.6632601490775271e-09 0.0000000000000000e+00  8.8136763523157077e-04 8.6632611248594824e-09 0.0000000000000000e+00  8.8136763522665023e-04 8.6632578983822373e-09 0.0000000000000000e+00  8.8136763523663985e-04 8.6632584250876526e-09 0.0000000000000000e+00  8.8136763522061686e-04 8.6632610829008583e-09 0.0000000000000000e+00  8.8136763523190666e-04 8.6632704705737890e-09 0.0000000000000000e+00  8.8136763523896829e-04 8.6632628117696425e-09 0.0000000000000000e+00  8.8136763522985112e-04 -2.9607140059833045e-09 0.0000000000000000e+00  5.9692567178654728e-04 4.2331414652893237e-09 0.0000000000000000e+00  5.9692567178892472e-04 4.2331382344210598e-09 0.0000000000000000e+00  5.9692567178986624e-04 4.2331425465099402e-09 0.0000000000000000e+00  5.9692567179061434e-04 4.2331287782265518e-09 0.0000000000000000e+00  5.9692567178503851e-04 4.2331342741015743e-09 0.0000000000000000e+00  5.9692567178565770e-04 4.2331394341991839e-09 0.0000000000000000e+00  5.9692567178768353e-04 4.2331388504647342e-09 0.0000000000000000e+00  5.9692567178716192e-04 4.2331430124458239e-09 0.0000000000000000e+00  5.9692567178958186e-04 4.2331360331111789e-09 0.0000000000000000e+00  5.9692567178573804e-04 4.2331345428210827e-09 0.0000000000000000e+00  5.9692567178643388e-04 4.2331279664843853e-09 0.0000000000000000e+00  5.9692567177675694e-04 4.2331256023815482e-09 0.0000000000000000e+00  5.9692567179104314e-04 4.2331268387514956e-09 0.0000000000000000e+00  5.9692567178954239e-04 4.2331297743372978e-09 0.0000000000000000e+00  5.9692567178448643e-04 4.2331257756912655e-09 0.0000000000000000e+00  5.9692567178614700e-04 4.2331266518892512e-09 0.0000000000000000e+00  5.9692567178118048e-04 4.2331286528385706e-09 0.0000000000000000e+00  5.9692567178668107e-04 4.2331192135576165e-09 0.0000000000000000e+00  5.9692567179062323e-04 4.2331341986953132e-09 0.0000000000000000e+00  5.9692567178157925e-04 4.2331413598506624e-09 0.0000000000000000e+00  5.9692567179612252e-04 4.2331426572069820e-09 0.0000000000000000e+00  5.9692567178988240e-04 4.2331475825748213e-09 0.0000000000000000e+00  5.9692567178836354e-04 4.2331426424076224e-09 0.0000000000000000e+00  5.9692567178598805e-04 4.2331375875860437e-09 0.0000000000000000e+00  5.9692567178140665e-04 4.2331339073701894e-09 0.0000000000000000e+00  5.9692567179054691e-04 4.2331204713947669e-09 0.0000000000000000e+00  5.9692567177311879e-04 4.2331363457950855e-09 0.0000000000000000e+00  5.9692567179351588e-04 4.2331290229309822e-09 0.0000000000000000e+00  5.9692567178514194e-04 4.2331327323660850e-09 0.0000000000000000e+00  5.9692567178925475e-04 4.2331346911399399e-09 0.0000000000000000e+00  5.9692567178654750e-04 -1.6331650345234513e-09 0.0000000000000000e+00  2.0926979829741693e-04 -1.0212543367666294e-09 0.0000000000000000e+00  2.0926979829431606e-04 -1.0212517108289677e-09 0.0000000000000000e+00  2.0926979829902025e-04 -1.0212515485781126e-09 0.0000000000000000e+00  2.0926979829950505e-04 -1.0212342046366169e-09 0.0000000000000000e+00  2.0926979830321739e-04 -1.0212449922449452e-09 0.0000000000000000e+00  2.0926979829053642e-04 -1.0212467868570387e-09 0.0000000000000000e+00  2.0926979829137971e-04 -1.0212479759015613e-09 0.0000000000000000e+00  2.0926979829887882e-04 -1.0212505719830057e-09 0.0000000000000000e+00  2.0926979829482672e-04 -1.0212588681760568e-09 0.0000000000000000e+00  2.0926979829366321e-04 -1.0212485195747406e-09 0.0000000000000000e+00  2.0926979829737389e-04 -1.0212410939553765e-09 0.0000000000000000e+00  2.0926979829887741e-04 -1.0212404558481878e-09 0.0000000000000000e+00  2.0926979829401861e-04 -1.0212441650664502e-09 0.0000000000000000e+00  2.0926979829380437e-04 -1.0212480758378965e-09 0.0000000000000000e+00  2.0926979830369370e-04 -1.0212459595294659e-09 0.0000000000000000e+00  2.0926979829739587e-04 -1.0212535345112319e-09 0.0000000000000000e+00  2.0926979828879476e-04 -1.0212487120477313e-09 0.0000000000000000e+00  2.0926979829903857e-04 -1.0212476563600760e-09 0.0000000000000000e+00  2.0926979829642163e-04 -1.0212556387714658e-09 0.0000000000000000e+00  2.0926979829520928e-04 -1.0212586703091603e-09 0.0000000000000000e+00  2.0926979829823553e-04 -1.0212461133642017e-09 0.0000000000000000e+00  2.0926979829852119e-04 -1.0212525678501274e-09 0.0000000000000000e+00  2.0926979829602782e-04 -1.0212482083409545e-09 0.0000000000000000e+00  2.0926979829876768e-04 -1.0212425200607040e-09 0.0000000000000000e+00  2.0926979829518516e-04 -1.0212454595767391e-09 0.0000000000000000e+00  2.0926979829746361e-04 -1.0212404051617363e-09 0.0000000000000000e+00  2.0926979829289700e-04 -1.0212389108600920e-09 0.0000000000000000e+00  2.0926979829608098e-04 -1.0212432464626071e-09 0.0000000000000000e+00  2.0926979829130875e-04 -1.0212547062898349e-09 0.0000000000000000e+00  2.0926979829613253e-04 -1.0212470239991589e-09 0.0000000000000000e+00  2.0926979829741693e-04 -9.8669085765369117e-13 0.0000000000000000e+00  -2.1457076646378461e-04 -6.2113479393525670e-09 0.0000000000000000e+00  -2.1457076646407957e-04 -6.2113529308025286e-09 0.0000000000000000e+00  -2.1457076646402232e-04 -6.2113481331537053e-09 0.0000000000000000e+00  -2.1457076645863796e-04 -6.2113479162590607e-09 0.0000000000000000e+00  -2.1457076646539698e-04 -6.2113590133935567e-09 0.0000000000000000e+00  -2.1457076646329043e-04 -6.2113492675002283e-09 0.0000000000000000e+00  -2.1457076646576610e-04 -6.2113533887695263e-09 0.0000000000000000e+00  -2.1457076646943379e-04 -6.2113530084314042e-09 0.0000000000000000e+00  -2.1457076646646655e-04 -6.2113505849142880e-09 0.0000000000000000e+00  -2.1457076646658402e-04 -6.2113542445303010e-09 0.0000000000000000e+00  -2.1457076646734703e-04 -6.2113523272271792e-09 0.0000000000000000e+00  -2.1457076646032232e-04 -6.2113495641921528e-09 0.0000000000000000e+00  -2.1457076646636138e-04 -6.2113451244926766e-09 0.0000000000000000e+00  -2.1457076645912721e-04 -6.2113479653734191e-09 0.0000000000000000e+00  -2.1457076646662305e-04 -6.2113527695274555e-09 0.0000000000000000e+00  -2.1457076645881956e-04 -6.2113453803643894e-09 0.0000000000000000e+00  -2.1457076647250734e-04 -6.2113431884870673e-09 0.0000000000000000e+00  -2.1457076646343474e-04 -6.2113371630334938e-09 0.0000000000000000e+00  -2.1457076645996161e-04 -6.2113481850869894e-09 0.0000000000000000e+00  -2.1457076647114461e-04 -6.2113488023232862e-09 0.0000000000000000e+00  -2.1457076645873565e-04 -6.2113463645489114e-09 0.0000000000000000e+00  -2.1457076646976355e-04 -6.2113516295972913e-09 0.0000000000000000e+00  -2.1457076645966681e-04 -6.2113469714310775e-09 0.0000000000000000e+00  -2.1457076646656527e-04 -6.2113520363357363e-09 0.0000000000000000e+00  -2.1457076645613925e-04 -6.2113532574184331e-09 0.0000000000000000e+00  -2.1457076647148077e-04 -6.2113520969426378e-09 0.0000000000000000e+00  -2.1457076646673944e-04 -6.2113482400018294e-09 0.0000000000000000e+00  -2.1457076646934841e-04 -6.2113542225209969e-09 0.0000000000000000e+00  -2.1457076646205536e-04 -6.2113438817259364e-09 0.0000000000000000e+00  -2.1457076646493929e-04 -6.2113452930861145e-09 0.0000000000000000e+00  -2.1457076646378467e-04 1.6662843339630234e-09 0.0000000000000000e+00  -6.0131011803154708e-04 -1.0397314475639637e-08 0.0000000000000000e+00  -6.0131011803321848e-04 -1.0397311954544325e-08 0.0000000000000000e+00  -6.0131011803423698e-04 -1.0397318045266869e-08 0.0000000000000000e+00  -6.0131011802722208e-04 -1.0397311524441323e-08 0