<?xml version="1.0"?>
<VTKFile type="UnstructuredGrid"  version="0.1"  >
<UnstructuredGrid>
<Piece  NumberOfPoints="961" NumberOfCells="1800">
<Points>
<DataArray  type="Float64"  NumberOfComponents="3"  format="ascii">0 0 0  0.03333333333333333 0 0  0.06666666666666667 0 0  0.1 0 0  0.1333333333333333 0 0  0.1666666666666667 0 0  0.2 0 0  0.2333333333333333 0 0  0.2666666666666667 0 0  0.3 0 0  0.3333333333333333 0 0  0.3666666666666666 0 0  0.4 0 0  0.4333333333333333 0 0  0.4666666666666667 0 0  0.5 0 0  0.5333333333333333 0 0  0.5666666666666667 0 0  0.6 0 0  0.6333333333333333 0 0  0.6666666666666666 0 0  0.7 0 0  0.7333333333333333 0 0  0.7666666666666667 0 0  0.8 0 0  0.8333333333333334 0 0  0.8666666666666667 0 0  0.9 0 0  0.9333333333333333 0 0  0.9666666666666667 0 0  1 0 0  0 0.03333333333333333 0  0.03333333333333333 0.03333333333333333 0  0.06666666666666667 0.03333333333333333 0  0.1 0.03333333333333333 0  0.1333333333333333 0.03333333333333333 0  0.1666666666666667 0.03333333333333333 0  0.2 0.03333333333333333 0  0.2333333333333333 0.03333333333333333 0  0.2666666666666667 0.03333333333333333 0  0.3 0.03333333333333333 0  0.3333333333333333 0.03333333333333333 0  0.3666666666666666 0.03333333333333333 0  0.4 0.03333333333333333 0  0.4333333333333333 0.03333333333333333 0  0.4666666666666667 0.03333333333333333 0  0.5 0.03333333333333333 0  0.5333333333333333 0.03333333333333333 0  0.5666666666666667 0.03333333333333333 0  0.6 0.03333333333333333 0  0.6333333333333333 0.03333333333333333 0  0.6666666666666666 0.03333333333333333 0  0.7 0.03333333333333333 0  0.7333333333333333 0.03333333333333333 0  0.7666666666666667 0.03333333333333333 0  0.8 0.03333333333333333 0  0.8333333333333334 0.03333333333333333 0  0.8666666666666667 0.03333333333333333 0  0.9 0.03333333333333333 0  0.9333333333333333 0.03333333333333333 0  0.9666666666666667 0.03333333333333333 0  1 0.03333333333333333 0  0 0.06666666666666667 0  0.03333333333333333 0.06666666666666667 0  0.06666666666666667 0.06666666666666667 0  0.1 0.06666666666666667 0  0.1333333333333333 0.06666666666666667 0  0.1666666666666667 0.06666666666666667 0  0.2 0.06666666666666667 0  0.2333333333333333 0.06666666666666667 0  0.2666666666666667 0.06666666666666667 0  0.3 0.06666666666666667 0  0.3333333333333333 0.06666666666666667 0  0.3666666666666666 0.06666666666666667 0  0.4 0.06666666666666667 0  0.4333333333333333 0.06666666666666667 0  0.4666666666666667 0.06666666666666667 0  0.5 0.06666666666666667 0  0.5333333333333333 0.06666666666666667 0  0.5666666666666667 0.06666666666666667 0  0.6 0.06666666666666667 0  0.6333333333333333 0.06666666666666667 0  0.6666666666666666 0.06666666666666667 0  0.7 0.06666666666666667 0  0.7333333333333333 0.06666666666666667 0  0.7666666666666667 0.06666666666666667 0  0.8 0.06666666666666667 0  0.8333333333333334 0.06666666666666667 0  0.8666666666666667 0.06666666666666667 0  0.9 0.06666666666666667 0  0.9333333333333333 0.06666666666666667 0  0.9666666666666667 0.06666666666666667 0  1 0.06666666666666667 0  0 0.1 0  0.03333333333333333 0.1 0  0.06666666666666667 0.1 0  0.1 0.1 0  0.1333333333333333 0.1 0  0.1666666666666667 0.1 0  0.2 0.1 0  0.2333333333333333 0.1 0  0.2666666666666667 0.1 0  0.3 0.1 0  0.3333333333333333 0.1 0  0.3666666666666666 0.1 0  0.4 0.1 0  0.4333333333333333 0.1 0  0.4666666666666667 0.1 0  0.5 0.1 0  0.5333333333333333 0.1 0  0.5666666666666667 0.1 0  0.6 0.1 0  0.6333333333333333 0.1 0  0.6666666666666666 0.1 0  0.7 0.1 0  0.7333333333333333 0.1 0  0.7666666666666667 0.1 0  0.8 0.1 0  0.8333333333333334 0.1 0  0.8666666666666667 0.1 0  0.9 0.1 0  0.9333333333333333 0.1 0  0.9666666666666667 0.1 0  1 0.1 0  0 0.1333333333333333 0  0.03333333333333333 0.1333333333333333 0  0.06666666666666667 0.1333333333333333 0  0.1 0.1333333333333333 0  0.1333333333333333 0.1333333333333333 0  0.1666666666666667 0.1333333333333333 0  0.2 0.1333333333333333 0  0.2333333333333333 0.1333333333333333 0  0.2666666666666667 0.1333333333333333 0  0.3 0.1333333333333333 0  0.3333333333333333 0.1333333333333333 0  0.3666666666666666 0.1333333333333333 0  0.4 0.1333333333333333 0  0.4333333333333333 0.1333333333333333 0  0.4666666666666667 0.1333333333333333 0  0.5 0.1333333333333333 0  0.5333333333333333 0.1333333333333333 0  0.5666666666666667 0.1333333333333333 0  0.6 0.1333333333333333 0  0.6333333333333333 0.1333333333333333 0  0.6666666666666666 0.1333333333333333 0  0.7 0.1333333333333333 0  0.7333333333333333 0.1333333333333333 0  0.7666666666666667 0.1333333333333333 0  0.8 0.1333333333333333 0  0.8333333333333334 0.1333333333333333 0  0.8666666666666667 0.1333333333333333 0  0.9 0.1333333333333333 0  0.9333333333333333 0.1333333333333333 0  0.9666666666666667 0.1333333333333333 0  1 0.1333333333333333 0  0 0.1666666666666667 0  0.03333333333333333 0.1666666666666667 0  0.06666666666666667 0.1666666666666667 0  0.1 0.1666666666666667 0  0.1333333333333333 0.1666666666666667 0  0.1666666666666667 0.1666666666666667 0  0.2 0.1666666666666667 0  0.2333333333333333 0.1666666666666667 0  0.2666666666666667 0.1666666666666667 0  0.3 0.1666666666666667 0  0.3333333333333333 0.1666666666666667 0  0.3666666666666666 0.1666666666666667 0  0.4 0.1666666666666667 0  0.4333333333333333 0.1666666666666667 0  0.4666666666666667 0.1666666666666667 0  0.5 0.1666666666666667 0  0.5333333333333333 0.1666666666666667 0  0.5666666666666667 0.1666666666666667 0  0.6 0.1666666666666667 0  0.6333333333333333 0.1666666666666667 0  0.6666666666666666 0.1666666666666667 0  0.7 0.1666666666666667 0  0.7333333333333333 0.1666666666666667 0  0.7666666666666667 0.1666666666666667 0  0.8 0.1666666666666667 0  0.8333333333333334 0.1666666666666667 0  0.8666666666666667 0.1666666666666667 0  0.9 0.1666666666666667 0  0.9333333333333333 0.1666666666666667 0  0.9666666666666667 0.1666666666666667 0  1 0.1666666666666667 0  0 0.2 0  0.03333333333333333 0.2 0  0.06666666666666667 0.2 0  0.1 0.2 0  0.1333333333333333 0.2 0  0.1666666666666667 0.2 0  0.2 0.2 0  0.2333333333333333 0.2 0  0.2666666666666667 0.2 0  0.3 0.2 0  0.3333333333333333 0.2 0  0.3666666666666666 0.2 0  0.4 0.2 0  0.4333333333333333 0.2 0  0.4666666666666667 0.2 0  0.5 0.2 0  0.5333333333333333 0.2 0  0.5666666666666667 0.2 0  0.6 0.2 0  0.6333333333333333 0.2 0  0.6666666666666666 0.2 0  0.7 0.2 0  0.7333333333333333 0.2 0  0.7666666666666667 0.2 0  0.8 0.2 0  0.8333333333333334 0.2 0  0.8666666666666667 0.2 0  0.9 0.2 0  0.9333333333333333 0.2 0  0.9666666666666667 0.2 0  1 0.2 0  0 0.2333333333333333 0  0.03333333333333333 0.2333333333333333 0  0.06666666666666667 0.2333333333333333 0  0.1 0.2333333333333333 0  0.1333333333333333 0.2333333333333333 0  0.1666666666666667 0.2333333333333333 0  0.2 0.2333333333333333 0  0.2333333333333333 0.2333333333333333 0  0.2666666666666667 0.2333333333333333 0  0.3 0.2333333333333333 0  0.3333333333333333 0.2333333333333333 0  0.3666666666666666 0.2333333333333333 0  0.4 0.2333333333333333 0  0.4333333333333333 0.2333333333333333 0  0.4666666666666667 0.2333333333333333 0  0.5 0.2333333333333333 0  0.5333333333333333 0.2333333333333333 0  0.5666666666666667 0.2333333333333333 0  0.6 0.2333333333333333 0  0.6333333333333333 0.2333333333333333 0  0.6666666666666666 0.2333333333333333 0  0.7 0.2333333333333333 0  0.7333333333333333 0.2333333333333333 0  0.7666666666666667 0.2333333333333333 0  0.8 0.2333333333333333 0  0.8333333333333334 0.2333333333333333 0  0.8666666666666667 0.2333333333333333 0  0.9 0.2333333333333333 0  0.9333333333333333 0.2333333333333333 0  0.9666666666666667 0.2333333333333333 0  1 0.2333333333333333 0  0 0.2666666666666667 0  0.03333333333333333 0.2666666666666667 0  0.06666666666666667 0.2666666666666667 0  0.1 0.2666666666666667 0  0.1333333333333333 0.2666666666666667 0  0.1666666666666667 0.2666666666666667 0  0.2 0.2666666666666667 0  0.2333333333333333 0.2666666666666667 0  0.2666666666666667 0.2666666666666667 0  0.3 0.2666666666666667 0  0.3333333333333333 0.2666666666666667 0  0.3666666666666666 0.2666666666666667 0  0.4 0.2666666666666667 0  0.4333333333333333 0.2666666666666667 0  0.4666666666666667 0.2666666666666667 0  0.5 0.2666666666666667 0  0.5333333333333333 0.2666666666666667 0  0.5666666666666667 0.2666666666666667 0  0.6 0.2666666666666667 0  0.6333333333333333 0.2666666666666667 0  0.6666666666666666 0.2666666666666667 0  0.7 0.2666666666666667 0  0.7333333333333333 0.2666666666666667 0  0.7666666666666667 0.2666666666666667 0  0.8 0.2666666666666667 0  0.8333333333333334 0.2666666666666667 0  0.8666666666666667 0.2666666666666667 0  0.9 0.2666666666666667 0  0.9333333333333333 0.2666666666666667 0  0.9666666666666667 0.2666666666666667 0  1 0.2666666666666667 0  0 0.3 0  0.03333333333333333 0.3 0  0.06666666666666667 0.3 0  0.1 0.3 0  0.1333333333333333 0.3 0  0.1666666666666667 0.3 0  0.2 0.3 0  0.2333333333333333 0.3 0  0.2666666666666667 0.3 0  0.3 0.3 0  0.3333333333333333 0.3 0  0.3666666666666666 0.3 0  0.4 0.3 0  0.4333333333333333 0.3 0  0.4666666666666667 0.3 0  0.5 0.3 0  0.5333333333333333 0.3 0  0.5666666666666667 0.3 0  0.6 0.3 0  0.6333333333333333 0.3 0  0.6666666666666666 0.3 0  0.7 0.3 0  0.7333333333333333 0.3 0  0.7666666666666667 0.3 0  0.8 0.3 0  0.8333333333333334 0.3 0  0.8666666666666667 0.3 0  0.9 0.3 0  0.9333333333333333 0.3 0  0.9666666666666667 0.3 0  1 0.3 0  0 0.3333333333333333 0  0.03333333333333333 0.3333333333333333 0  0.06666666666666667 0.3333333333333333 0  0.1 0.3333333333333333 0  0.1333333333333333 0.3333333333333333 0  0.1666666666666667 0.3333333333333333 0  0.2 0.3333333333333333 0  0.2333333333333333 0.3333333333333333 0  0.2666666666666667 0.3333333333333333 0  0.3 0.3333333333333333 0  0.3333333333333333 0.3333333333333333 0  0.3666666666666666 0.3333333333333333 0  0.4 0.3333333333333333 0  0.4333333333333333 0.3333333333333333 0  0.4666666666666667 0.3333333333333333 0  0.5 0.3333333333333333 0  0.5333333333333333 0.33333333333333
[...]
<PointData  Vectors="u_f"> 
<DataArray  type="Float64"  Name="u_f"  NumberOfComponents="3" format="ascii">2.7080349763922542e-06 -3.6479386794283086e-09 0.0000000000000000e+00  2.7080349782389757e-06 -3.6479323036690131e-09 0.0000000000000000e+00  2.7080349889057904e-06 -3.6479165321594807e-09 0.0000000000000000e+00  2.7080349712701578e-06 -3.6479179726304871e-09 0.0000000000000000e+00  2.7080349856518828e-06 -3.6479270279954519e-09 0.0000000000000000e+00  2.7080349637522458e-06 -3.6479454478314209e-09 0.0000000000000000e+00  2.7080349705842373e-06 -3.6479366962599048e-09 0.0000000000000000e+00  2.7080349948704744e-06 -3.6479359006723507e-09 0.0000000000000000e+00  2.7080349673109768e-06 -3.6479513789051954e-09 0.0000000000000000e+00  2.7080349793772796e-06 -3.6479373936187422e-09 0.0000000000000000e+00  2.7080349730081339e-06 -3.6479292853585851e-09 0.0000000000000000e+00  2.7080349633124392e-06 -3.6480099013737506e-09 0.0000000000000000e+00  2.7080349270797578e-06 -3.6479692977855506e-09 0.0000000000000000e+00  2.7080349691468021e-06 -3.6479517710611212e-09 0.0000000000000000e+00  2.7080349756998827e-06 -3.6479418799389117e-09 0.0000000000000000e+00  2.7080349744810226e-06 -3.6479565068562106e-09 0.0000000000000000e+00  2.7080349806505124e-06 -3.6479442551548211e-09 0.0000000000000000e+00  2.7080349679823690e-06 -3.6479205536279688e-09 0.0000000000000000e+00  2.7080349853248874e-06 -3.6479159105863752e-09 0.0000000000000000e+00  2.7080349761994288e-06 -3.6479331503766997e-09 0.0000000000000000e+00  2.7080349807872845e-06 -3.6479491137900166e-09 0.0000000000000000e+00  2.7080349772142963e-06 -3.6479338794484506e-09 0.0000000000000000e+00  2.7080350113680741e-06 -3.6478830959065824e-09 0.0000000000000000e+00  2.7080350072101046e-06 -3.6479315315002259e-09 0.0000000000000000e+00  2.7080349780090164e-06 -3.6479408579157338e-09 0.0000000000000000e+00  2.7080349882313082e-06 -3.6479284789832193e-09 0.0000000000000000e+00  2.7080349805637762e-06 -3.6479393020314062e-09 0.0000000000000000e+00  2.7080349896925959e-06 -3.6479498708341836e-09 0.0000000000000000e+00  2.7080349687355100e-06 -3.6479408497842175e-09 0.0000000000000000e+00  2.7080349859536705e-06 -3.6479537816598399e-09 0.0000000000000000e+00  2.7080349763923084e-06 8.1055405334793495e-10 0.0000000000000000e+00  4.1704774964115810e-04 -7.5972220389686207e-09 0.0000000000000000e+00  4.1704774964569473e-04 -7.5972232459024791e-09 0.0000000000000000e+00  4.1704774964217714e-04 -7.5972478814695030e-09 0.0000000000000000e+00  4.1704774963473984e-04 -7.5972437777642801e-09 0.0000000000000000e+00  4.1704774964519274e-04 -7.5972339494715865e-09 0.0000000000000000e+00  4.1704774963173888e-04 -7.5972292166038430e-09 0.0000000000000000e+00  4.1704774964005146e-04 -7.5972305018170982e-09 0.0000000000000000e+00  4.1704774963504982e-04 -7.5972490783202812e-09 0.0000000000000000e+00  4.1704774964142449e-04 -7.5972368255346895e-09 0.0000000000000000e+00  4.1704774963498259e-04 -7.5972313506389791e-09 0.0000000000000000e+00  4.1704774965438938e-04 -7.5972226256304162e-09 0.0000000000000000e+00  4.1704774959278306e-04 -7.5972865424926705e-09 0.0000000000000000e+00  4.1704774960923550e-04 -7.5972552298665674e-09 0.0000000000000000e+00  4.1704774963703445e-04 -7.5972244200934319e-09 0.0000000000000000e+00  4.1704774963634826e-04 -7.5972231775977422e-09 0.0000000000000000e+00  4.1704774964990805e-04 -7.5972102072871528e-09 0.0000000000000000e+00  4.1704774963779014e-04 -7.5972002413007833e-09 0.0000000000000000e+00  4.1704774965724690e-04 -7.5972267974235355e-09 0.0000000000000000e+00  4.1704774963001272e-04 -7.5972379542975713e-09 0.0000000000000000e+00  4.1704774965497875e-04 -7.5972171745871536e-09 0.0000000000000000e+00  4.1704774963094990e-04 -7.5972513335692202e-09 0.0000000000000000e+00  4.1704774963522058e-04 -7.5972358947471244e-09 0.0000000000000000e+00  4.1704774968217108e-04 -7.5971588749763549e-09 0.0000000000000000e+00  4.1704774968411885e-04 -7.5972088502997137e-09 0.0000000000000000e+00  4.1704774963920849e-04 -7.5972214909044225e-09 0.0000000000000000e+00  4.1704774964028012e-04 -7.5972490028598100e-09 0.0000000000000000e+00  4.1704774963340801e-04 -7.5972552590316059e-09 0.0000000000000000e+00  4.1704774963251755e-04 -7.5972327925194483e-09 0.0000000000000000e+00  4.1704774965702529e-04 -7.5972376691523999e-09 0.0000000000000000e+00  4.1704774962900669e-04 -7.5972348904506520e-09 0.0000000000000000e+00  4.1704774964115854e-04 3.7810542854605438e-09 0.0000000000000000e+00  7.5927607103259487e-04 -1.0402536177291435e-08 0.0000000000000000e+00  7.5927607103347936e-04 -1.0402532096137618e-08 0.0000000000000000e+00  7.5927607102535489e-04 -1.0402524160428236e-08 0.0000000000000000e+00  7.5927607103331717e-04 -1.0402531844819554e-08 0.0000000000000000e+00  7.5927607102020808e-04 -1.0402542267146618e-08 0.0000000000000000e+00  7.5927607102692547e-04 -1.0402533349800590e-08 0.0000000000000000e+00  7.5927607101829609e-04 -1.0402549517857067e-08 0.0000000000000000e+00  7.5927607103507130e-04 -1.0402544548958510e-08 0.0000000000000000e+00  7.5927607101829175e-04 -1.0402545900199678e-08 0.0000000000000000e+00  7.5927607102630672e-04 -1.0402551297791773e-08 0.0000000000000000e+00  7.5927607102039088e-04 -1.0402531280492323e-08 0.0000000000000000e+00  7.5927607098443439e-04 -1.0402618929022250e-08 0.0000000000000000e+00  7.5927607098517631e-04 -1.0402556816055571e-08 0.0000000000000000e+00  7.5927607101439903e-04 -1.0402566785619807e-08 0.0000000000000000e+00  7.5927607101976789e-04 -1.0402548221801790e-08 0.0000000000000000e+00  7.5927607103338406e-04 -1.0402539130224472e-08 0.0000000000000000e+00  7.5927607102466447e-04 -1.0402542238198420e-08 0.0000000000000000e+00  7.5927607102509881e-04 -1.0402540899100317e-08 0.0000000000000000e+00  7.5927607102073251e-04 -1.0402529488089292e-08 0.0000000000000000e+00  7.5927607103477499e-04 -1.0402542309538923e-08 0.0000000000000000e+00  7.5927607102335552e-04 -1.0402516314165534e-08 0.0000000000000000e+00  7.5927607101915434e-04 -1.0402537557372381e-08 0.0000000000000000e+00  7.5927607107921925e-04 -1.0402460217111449e-08 0.0000000000000000e+00  7.5927607106648833e-04 -1.0402536764712172e-08 0.0000000000000000e+00  7.5927607102729518e-04 -1.0402543472020492e-08 0.0000000000000000e+00  7.5927607102029330e-04 -1.0402549210052070e-08 0.0000000000000000e+00  7.5927607100727268e-04 -1.0402542035452614e-08 0.0000000000000000e+00  7.5927607102850992e-04 -1.0402529457189530e-08 0.0000000000000000e+00  7.5927607102589483e-04 -1.0402538078331525e-08 0.0000000000000000e+00  7.5927607102839391e-04 -1.0402534156013325e-08 0.0000000000000000e+00  7.5927607103259531e-04 6.1892978797776019e-09 0.0000000000000000e+00  9.7021869974712690e-04 -1.1327461477052964e-08 0.0000000000000000e+00  9.7021869974351672e-04 -1.1327470311132265e-08 0.0000000000000000e+00  9.7021869974806365e-04 -1.1327458599580398e-08 0.0000000000000000e+00  9.7021869974951605e-04 -1.1327482055860719e-08 0.0000000000000000e+00  9.7021869973418521e-04 -1.1327476293109331e-08 0.0000000000000000e+00  9.7021869973359454e-04 -1.1327475507930118e-08 0.0000000000000000e+00  9.7021869975175601e-04 -1.1327459630006143e-08 0.0000000000000000e+00  9.7021869974716702e-04 -1.1327482647835105e-08 0.0000000000000000e+00  9.7021869973536699e-04 -1.1327456754701981e-08 0.0000000000000000e+00  9.7021869974896159e-04 -1.1327471944808098e-08 0.0000000000000000e+00  9.7021869972880041e-04 -1.1327509982957118e-08 0.0000000000000000e+00  9.7021869971179731e-04 -1.1327449196511796e-08 0.0000000000000000e+00  9.7021869976107213e-04 -1.1327469865742013e-08 0.0000000000000000e+00  9.7021869974287032e-04 -1.1327480675671353e-08 0.0000000000000000e+00  9.7021869974031724e-04 -1.1327468146847888e-08 0.0000000000000000e+00  9.7021869973492009e-04 -1.1327480559228040e-08 0.0000000000000000e+00  9.7021869974815169e-04 -1.1327475006811874e-08 0.0000000000000000e+00  9.7021869973156600e-04 -1.1327472765549143e-08 0.0000000000000000e+00  9.7021869973929289e-04 -1.1327469485837571e-08 0.0000000000000000e+00  9.7021869975108185e-04 -1.1327455972558534e-08 0.0000000000000000e+00  9.7021869975000632e-04 -1.1327487016519339e-08 0.0000000000000000e+00  9.7021869974140318e-04 -1.1327467233299138e-08 0.0000000000000000e+00  9.7021869977405328e-04 -1.1327475898893422e-08 0.0000000000000000e+00  9.7021869974933455e-04 -1.1327461614529799e-08 0.0000000000000000e+00  9.7021869973755014e-04 -1.1327483865394145e-08 0.0000000000000000e+00  9.7021869972678510e-04 -1.1327480271480783e-08 0.0000000000000000e+00  9.7021869974316523e-04 -1.1327471194973876e-08 0.0000000000000000e+00  9.7021869973631285e-04 -1.1327479344921607e-08 0.0000000000000000e+00  9.7021869974091464e-04 -1.1327461189739388e-08 0.0000000000000000e+00  9.7021869974091117e-04 -1.1327454372059287e-08 0.0000000000000000e+00  9.7021869974712755e-04 7.5453453881190328e-09 0.0000000000000000e+00  1.0134017882823100e-03 -1.0051629863302644e-08 0.0000000000000000e+00  1.0134017882750302e-03 -1.0051627604475838e-08 0.0000000000000000e+00  1.0134017882683227e-03 -1.0051613755310967e-08 0.0000000000000000e+00  1.0134017882927021e-03 -1.0051621316428498e-08 0.0000000000000000e+00  1.0134017882743364e-03 -1.0051628875377625e-08 0.0000000000000000e+00  1.0134017882653047e-03 -1.0051638584191239e-08 0.0000000000000000e+00  1.0134017882669599e-03 -1.0051622378404526e-08 0.0000000000000000e+00  1.0134017882741575e-03 -1.0051616806147461e-08 0.0000000000000000e+00  1.0134017882859675e-03 -1.0051632087434981e-08 0.0000000000000000e+00  1.0134017882777039e-03 -1.0051631891194387e-08 0.0000000000000000e+00  1.0134017882681423e-03 -1.0051616457901723e-08 0.0000000000000000e+00  1.0134017882668556e-03 -1.0051641612584747e-08 0.0000000000000000e+00  1.0134017882579588e-03 -1.0051622340240610e-08 0.0000000000000000e+00  1.0134017882945162e-03 -1.0051634824286525e-08 0.0000000000000000e+00  1.0134017882622766e-03 -1.0051641547966297e-08 0.0000000000000000e+00  1.0134017882892710e-03 -1.0051612916355326e-08 0.0000000000000000e+00  1.0134017882780437e-03 -1.0051648116171479e-08 0.0000000000000000e+00  1.0134017882535138e-03 -1.0051622219352067e-08 0.0000000000000000e+00  1.0134017882833905e-03 -1.0051627138919425e-08 0.0000000000000000e+00  1.0134017882740048e-03 -1.0051611543104855e-08 0.0000000000000000e+00  1.0134017882792333e-03 -1.0051617538634448e-08 0.0000000000000000e+00  1.0134017882857016e-03 -1.0051636390850244e-08 0.0000000000000000e+00  1.0134017882749528e-03 -1.0051619814808489e-08 0.0000000000000000e+00  1.0134017882742019e-03 -1.0051635582035423e-08 0.0000000000000000e+00  1.0134017882703953e-03 -1.0051627228040844e-08 0.0000000000000000e+00  1.0134017882730403e-03 -1.0051618868516833e-08 0.0000000000000000e+00  1.0134017882825735e-03 -1.0051633811966956e-08 0.0000000000000000e+00  1.0134017882757337e-03 -1.0051626081388626e-08 0.0000000000000000e+00  1.0134017882717210e-03 -1.0051634343768122e-08 0.0000000000000000e+00  1.0134017882560014e-03 -1.0051639239266191e-08 0.0000000000000000e+00  1.0134017882823102e-03 7.5420986000713499e-09 0.0000000000000000e+00  8.8135856788341537e-04 -6.8320452435623874e-09 0.0000000000000000e+00  8.8135856787960104e-04 -6.8320137822921664e-09 0.0000000000000000e+00  8.8135856786648924e-04 -6.8320438062355673e-09 0.0000000000000000e+00  8.8135856787350836e-04 -6.8320360287112830e-09 0.0000000000000000e+00  8.8135856787071210e-04 -6.8320216061118835e-09 0.0000000000000000e+00  8.8135856789070218e-04 -6.8320184880548557e-09 0.0000000000000000e+00  8.8135856786689321e-04 -6.8320311311532295e-09 0.0000000000000000e+00  8.8135856788901495e-04 -6.8320345626531054e-09 0.0000000000000000e+00  8.8135856785711544e-04 -6.8320260154536988e-09 0.0000000000000000e+00  8.8135856787990548e-04 -6.8320358147981944e-09 0.0000000000000000e+00  8.8135856788726635e-04 -6.8320319637120777e-09 0.0000000000000000e+00  8.8135856786633387e-04 -6.8320399332485668e-09 0.0000000000000000e+00  8.8135856785944420e-04 -6.8320275022201379e-09 0.0000000000000000e+00  8.8135856788222676e-04 -6.8320248586099808e-09 0.0000000000000000e+00  8.8135856787748825e-04 -6.8320593848113231e-09 0.0000000000000000e+00  8.8135856785941569e-04 -6.8320631588106653e-09 0.0000000000000000e+00  8.8135856788431818e-04 -6.8320355557822954e-09 0.0000000000000000e+00  8.8135856786926002e-04 -6.8320438551330853e-09 0.0000000000000000e+00  8.8135856787959789e-04 -6.8320286510407599e-09 0.0000000000000000e+00  8.8135856787045113e-04 -6.8320574360663383e-09 0.0000000000000000e+00  8.8135856787562700e-04 -6.8320417744406961e-09 0.0000000000000000e+00  8.8135856787940675e-04 -6.8320466898880855e-09 0.0000000000000000e+00  8.8135856786872584e-04 -6.8320377575800673e-09 0.0000000000000000e+00  8.8135856788133413e-04 -6.8320119318843187e-09 0.0000000000000000e+00  8.8135856787829479e-04 -6.8320343884218163e-09 0.0000000000000000e+00  8.8135856787260641e-04 -6.8320226583300919e-09 0.0000000000000000e+00  8.8135856788059026e-04 -6.8320289279459948e-09 0.0000000000000000e+00  8.8135856787810657e-04 -6.8320216376621667e-09 0.0000000000000000e+00  8.8135856788986767e-04 -6.8320445765612109e-09 0.0000000000000000e+00  8.8135856786317353e-04 -6.8320427115166338e-09 0.0000000000000000e+00  8.8135856788341580e-04 6.1565104297008137e-09 0.0000000000000000e+00  5.9692043404588021e-04 -2.4343123032751976e-09 0.0000000000000000e+00  5.9692043402051909e-04 -2.4343375606863775e-09 0.0000000000000000e+00  5.9692043401783472e-04 -2.4343146023801145e-09 0.0000000000000000e+00  5.9692043403633337e-04 -2.4343444037910195e-09 0.0000000000000000e+00  5.9692043400879041e-04 -2.4343295877346516e-09 0.0000000000000000e+00  5.9692043401884313e-04 -2.4343222973966135e-09 0.0000000000000000e+00  5.9692043403053680e-04 -2.4343112715484103e-09 0.0000000000000000e+00  5.9692043402231280e-04 -2.4343081692665240e-09 0.0000000000000000e+00  5.9692043403111316e-04 -2.4343339350601026e-09 0.0000000000000000e+00  5.9692043401066988e-04 -2.4343268823249706e-09 0.0000000000000000e+00  5.9692043403395084e-04 -2.4343246068556611e-09 0.0000000000000000e+00  5.9692043401379032e-04 -2.4343572831912567e-09 0.0000000000000000e+00  5.9692043401447846e-04 -2.4343463333456258e-09 0.0000000000000000e+00  5.9692043401635446e-04 -2.4343243069111301e-09 0.0000000000000000e+00  5.9692043402588340e-04 -2.4343502772394485e-09 0.0000000000000000e+00  5.9692043401091328e-04 -2.4343149410306630e-09 0.0000000000000000e+00  5.9692043402535117e-04 -2.4343114221983021e-09 0.0000000000000000e+00  5.9692043403183534e-04 -2.4343194879035239e-09 0.0000000000000000e+00  5.9692043401996474e-04 -2.4343149656420524e-09 0.0000000000000000e+00  5.9692043402901620e-04 -2.4343078841213527e-09 0.0000000000000000e+00  5.9692043403120531e-04 -2.4343210111533661e-09 0.0000000000000000e+00  5.9692043401419624e-04 -2.4343182360836955e-09 0.0000000000000000e+00  5.9692043404283512e-04 -2.4343110612673989e-09 0.0000000000000000e+00  5.9692043403396493e-04 -2.4343279862054125e-09 0.0000000000000000e+00  5.9692043401961313e-04 -2.4343236978605597e-09 0.0000000000000000e+00  5.9692043400536780e-04 -2.4343392119262862e-09 0.0000000000000000e+00  5.9692043402310947e-04 -2.4343163710391184e-09 0.0000000000000000e+00  5.9692043401638915e-04 -2.4343475474894287e-09 0.0000000000000000e+00  5.9692043402029987e-04 -2.4343321375071107e-09 0.0000000000000000e+00  5.9692043400259398e-04 -2.4343265681773911e-09 0.0000000000000000e+00  5.9692043404588032e-04 3.6682260120831924e-09 0.0000000000000000e+00  2.0926924138723251e-04 2.1377357741658070e-09 0.0000000000000000e+00  2.0926924137826302e-04 2.1377247438317173e-09 0.0000000000000000e+00  2.0926924136897379e-04 2.1377409177157809e-09 0.0000000000000000e+00  2.0926924138756230e-04 2.1377342124132351e-09 0.0000000000000000e+00  2.0926924136603062e-04 2.1377186296090908e-09 0.0000000000000000e+00  2.0926924135993621e-04 2.1377326185818314e-09 0.0000000000000000e+00  2.0926924137116429e-04 2.1377354491084431e-09 0.0000000000000000e+00  2.0926924139037903e-04 2.1377374162848649e-09 0.0000000000000000e+00  2.0926924137709674e-04 2.1377373942620083e-09 0.0000000000000000e+00  2.0926924137403750e-04 2.1377318892525825e-09 0.0000000000000000e+00  2.0926924136994927e-04 2.1377419409044762e-09 0.0000000000000000e+00  2.0926924136699057e-04 2.1377579244839535e-09 0.0000000000000000e+00  2.0926924139090091e-04 2.1377491831988055e-09 0.0000000000000000e+00  2.0926924136185156e-04 2.1377535227586585e-09 0.0000000000000000e+00  2.0926924139654283e-04 2.1377424463188714e-09 0.0000000000000000e+00  2.0926924136763602e-04 2.1377229252994134e-09 0.0000000000000000e+00  2.0926924137229638e-04 2.1377440976672003e-09 0.0000000000000000e+00  2.0926924138448685e-04 2.1377464081426874e-09 0.0000000000000000e+00  2.0926924138286245e-04 2.1377194418391483e-09 0.0000000000000000e+00  2.0926924138467838e-04 2.1377226598867215e-09 0.0000000000000000e+00  2.0926924136702673e-04 2.1377175137346624e-09 0.0000000000000000e+00  2.0926924136872155e-04 2.1377364596255255e-09 0.0000000000000000e+00  2.0926924137980578e-04 2.1377495275007579e-09 0.0000000000000000e+00  2.0926924138375591e-04 2.1377325353151046e-09 0.0000000000000000e+00  2.0926924137935351e-04 2.1377276360087750e-09 0.0000000000000000e+00  2.0926924137341555e-04 2.1377195079212707e-09 0.0000000000000000e+00  2.0926924137723525e-04 2.1377427439865778e-09 0.0000000000000000e+00  2.0926924137775876e-04 2.1377250625193934e-09 0.0000000000000000e+00  2.0926924136380269e-04 2.1377293383146060e-09 0.0000000000000000e+00  2.0926924136306378e-04 2.1377357639878591e-09 0.0000000000000000e+00  2.0926924138723254e-04 5.8446434308954126e-10 0.0000000000000000e+00  -2.1456663071828979e-04 5.9768660377380357e-09 0.0000000000000000e+00  -2.1456663071498796e-04 5.9768711848252193e-09 0.0000000000000000e+00  -2.1456663072972292e-04 5.9768608200692908e-09 0.0000000000000000e+00  -2.1456663071883585e-04 5.9768564535534613e-09 0.0000000000000000e+00  -2.1456663069214371e-04 5.9768648314004885e-09 0.0000000000000000e+00  -2.1456663073330659e-04 5.9768588816242266e-09 0.0000000000000000e+00  -2.1456663072061866e-04 5.9768871832582664e-09 0.0000000000000000e+00  -2.1456663070255780e-04 5.9768704618792107e-09 0.0000000000000000e+00  -2.1456663071406314e-04 5.9768782639064641e-09 0.0000000000000000e+00  -2.1456663070270877e-04 5.9768797817352955e-09 0.0000000000000000e+00  -2.1456663072318653e-04 5.9768754283925224e-09 0.0000000000000000e+00  -2.1456663070346251e-04 5.9768697973716992e-09 0.0000000000000000e+00  -2.1456663071302729e-04 5.9768750580290603e-09 0.0000000000000000e+00  -2.1456663071738519e-04 5.9768397312528337e-09 0.0000000000000000e+00  -2.1456663073045746e-04 5.9768478501381721e-09 0.0000000000000000e+00  -2.1456663071612079e-04 5.9768499075202146e-09 0.0000000000000000e+00  -2.1456663070990641e-04 5.9768540248321747e-09 0.0000000000000000e+00  -2.1456663072169614e-04 5.9768806890498835e-09 0.0000000000000000e+00  -2.1456663070454227e-04 5.9768797054074625e-09 0.0000000000000000e+00  -2.1456663070420259e-04 5.9768672641875333e-09 0.0000000000000000e+00  -2.1456663071743056e-04 5.9768782203757469e-09 0.0000000000000000e+00  -2.1456663071726419e-04 5.9768564934521012e-09 0.0000000000000000e+00  -2.1456663072871906e-04 5.9768658717466831e-09 0.0000000000000000e+00  -2.1456663070199098e-04 5.9768740921675549e-09 0.0000000000000000e+00  -2.1456663072351922e-04 5.9768945056886888e-09 0.0000000000000000e+00  -2.1456663070633814e-04 5.9768845009963018e-09 0.0000000000000000e+00  -2.1456663071437289e-04 5.9768550693525477e-09 0.0000000000000000e+00  -2.1456663070608872e-04 5.9768633864842532e-09 0.0000000000000000e+00  -2.1456663070447825e-04 5.9768834355508269e-09 0.0000000000000000e+00  -2.1456663071287165e-04 5.9768725696224441e-09 0.0000000000000000e+00  -2.1456663071828995e-04 -2.4983423222449416e-09 0.0000000000000000e+00  -6.0130207148749307e-04 8.5060958064479830e-09 0.0000000000000000e+00  -6.0130207148483743e-04 8.5060972804208365e-09 0.00