<?xml version="1.0"?>
<VTKFile type="UnstructuredGrid"  version="0.1"  >
<UnstructuredGrid>
<Piece  NumberOfPoints="961" NumberOfCells="1800">
<Points>
<DataArray  type="Float64"  NumberOfComponents="3"  format="ascii">0 0 0  0.03333333333333333 0 0  0.06666666666666667 0 0  0.1 0 0  0.1333333333333333 0 0  0.1666666666666667 0 0  0.2 0 0  0.2333333333333333 0 0  0.2666666666666667 0 0  0.3 0 0  0.3333333333333333 0 0  0.3666666666666666 0 0  0.4 0 0  0.4333333333333333 0 0  0.4666666666666667 0 0  0.5 0 0  0.5333333333333333 0 0  0.5666666666666667 0 0  0.6 0 0  0.6333333333333333 0 0  0.6666666666666666 0 0  0.7 0 0  0.7333333333333333 0 0  0.7666666666666667 0 0  0.8 0 0  0.8333333333333334 0 0  0.8666666666666667 0 0  0.9 0 0  0.9333333333333333 0 0  0.9666666666666667 0 0  1 0 0  0 0.03333333333333333 0  0.03333333333333333 0.03333333333333333 0  0.06666666666666667 0.03333333333333333 0  0.1 0.03333333333333333 0  0.1333333333333333 0.03333333333333333 0  0.1666666666666667 0.03333333333333333 0  0.2 0.03333333333333333 0  0.2333333333333333 0.03333333333333333 0  0.2666666666666667 0.03333333333333333 0  0.3 0.03333333333333333 0  0.3333333333333333 0.03333333333333333 0  0.3666666666666666 0.03333333333333333 0  0.4 0.03333333333333333 0  0.4333333333333333 0.03333333333333333 0  0.4666666666666667 0.03333333333333333 0  0.5 0.03333333333333333 0  0.5333333333333333 0.03333333333333333 0  0.5666666666666667 0.03333333333333333 0  0.6 0.03333333333333333 0  0.6333333333333333 0.03333333333333333 0  0.6666666666666666 0.03333333333333333 0  0.7 0.03333333333333333 0  0.7333333333333333 0.03333333333333333 0  0.7666666666666667 0.03333333333333333 0  0.8 0.03333333333333333 0  0.8333333333333334 0.03333333333333333 0  0.8666666666666667 0.03333333333333333 0  0.9 0.03333333333333333 0  0.9333333333333333 0.03333333333333333 0  0.9666666666666667 0.03333333333333333 0  1 0.03333333333333333 0  0 0.06666666666666667 0  0.03333333333333333 0.06666666666666667 0  0.06666666666666667 0.06666666666666667 0  0.1 0.06666666666666667 0  0.1333333333333333 0.06666666666666667 0  0.1666666666666667 0.06666666666666667 0  0.2 0.06666666666666667 0  0.2333333333333333 0.06666666666666667 0  0.2666666666666667 0.06666666666666667 0  0.3 0.06666666666666667 0  0.3333333333333333 0.06666666666666667 0  0.3666666666666666 0.06666666666666667 0  0.4 0.06666666666666667 0  0.4333333333333333 0.06666666666666667 0  0.4666666666666667 0.06666666666666667 0  0.5 0.06666666666666667 0  0.5333333333333333 0.06666666666666667 0  0.5666666666666667 0.06666666666666667 0  0.6 0.06666666666666667 0  0.6333333333333333 0.06666666666666667 0  0.6666666666666666 0.06666666666666667 0  0.7 0.06666666666666667 0  0.7333333333333333 0.06666666666666667 0  0.7666666666666667 0.06666666666666667 0  0.8 0.06666666666666667 0  0.8333333333333334 0.06666666666666667 0  0.8666666666666667 0.06666666666666667 0  0.9 0.06666666666666667 0  0.9333333333333333 0.06666666666666667 0  0.9666666666666667 0.06666666666666667 0  1 0.06666666666666667 0  0 0.1 0  0.03333333333333333 0.1 0  0.06666666666666667 0.1 0  0.1 0.1 0  0.1333333333333333 0.1 0  0.1666666666666667 0.1 0  0.2 0.1 0  0.2333333333333333 0.1 0  0.2666666666666667 0.1 0  0.3 0.1 0  0.3333333333333333 0.1 0  0.3666666666666666 0.1 0  0.4 0.1 0  0.4333333333333333 0.1 0  0.4666666666666667 0.1 0  0.5 0.1 0  0.5333333333333333 0.1 0  0.5666666666666667 0.1 0  0.6 0.1 0  0.6333333333333333 0.1 0  0.6666666666666666 0.1 0  0.7 0.1 0  0.7333333333333333 0.1 0  0.7666666666666667 0.1 0  0.8 0.1 0  0.8333333333333334 0.1 0  0.8666666666666667 0.1 0  0.9 0.1 0  0.9333333333333333 0.1 0  0.9666666666666667 0.1 0  1 0.1 0  0 0.1333333333333333 0  0.03333333333333333 0.1333333333333333 0  0.06666666666666667 0.1333333333333333 0  0.1 0.1333333333333333 0  0.1333333333333333 0.1333333333333333 0  0.1666666666666667 0.1333333333333333 0  0.2 0.1333333333333333 0  0.2333333333333333 0.1333333333333333 0  0.2666666666666667 0.1333333333333333 0  0.3 0.1333333333333333 0  0.3333333333333333 0.1333333333333333 0  0.3666666666666666 0.1333333333333333 0  0.4 0.1333333333333333 0  0.4333333333333333 0.1333333333333333 0  0.4666666666666667 0.1333333333333333 0  0.5 0.1333333333333333 0  0.5333333333333333 0.1333333333333333 0  0.5666666666666667 0.1333333333333333 0  0.6 0.1333333333333333 0  0.6333333333333333 0.1333333333333333 0  0.6666666666666666 0.1333333333333333 0  0.7 0.1333333333333333 0  0.7333333333333333 0.1333333333333333 0  0.7666666666666667 0.1333333333333333 0  0.8 0.1333333333333333 0  0.8333333333333334 0.1333333333333333 0  0.8666666666666667 0.1333333333333333 0  0.9 0.1333333333333333 0  0.9333333333333333 0.1333333333333333 0  0.9666666666666667 0.1333333333333333 0  1 0.1333333333333333 0  0 0.1666666666666667 0  0.03333333333333333 0.1666666666666667 0  0.06666666666666667 0.1666666666666667 0  0.1 0.1666666666666667 0  0.1333333333333333 0.1666666666666667 0  0.1666666666666667 0.1666666666666667 0  0.2 0.1666666666666667 0  0.2333333333333333 0.1666666666666667 0  0.2666666666666667 0.1666666666666667 0  0.3 0.1666666666666667 0  0.3333333333333333 0.1666666666666667 0  0.3666666666666666 0.1666666666666667 0  0.4 0.1666666666666667 0  0.4333333333333333 0.1666666666666667 0  0.4666666666666667 0.1666666666666667 0  0.5 0.1666666666666667 0  0.5333333333333333 0.1666666666666667 0  0.5666666666666667 0.1666666666666667 0  0.6 0.1666666666666667 0  0.6333333333333333 0.1666666666666667 0  0.6666666666666666 0.1666666666666667 0  0.7 0.1666666666666667 0  0.7333333333333333 0.1666666666666667 0  0.7666666666666667 0.1666666666666667 0  0.8 0.1666666666666667 0  0.8333333333333334 0.1666666666666667 0  0.8666666666666667 0.1666666666666667 0  0.9 0.1666666666666667 0  0.9333333333333333 0.1666666666666667 0  0.9666666666666667 0.1666666666666667 0  1 0.1666666666666667 0  0 0.2 0  0.03333333333333333 0.2 0  0.06666666666666667 0.2 0  0.1 0.2 0  0.1333333333333333 0.2 0  0.1666666666666667 0.2 0  0.2 0.2 0  0.2333333333333333 0.2 0  0.2666666666666667 0.2 0  0.3 0.2 0  0.3333333333333333 0.2 0  0.3666666666666666 0.2 0  0.4 0.2 0  0.4333333333333333 0.2 0  0.4666666666666667 0.2 0  0.5 0.2 0  0.5333333333333333 0.2 0  0.5666666666666667 0.2 0  0.6 0.2 0  0.6333333333333333 0.2 0  0.6666666666666666 0.2 0  0.7 0.2 0  0.7333333333333333 0.2 0  0.7666666666666667 0.2 0  0.8 0.2 0  0.8333333333333334 0.2 0  0.8666666666666667 0.2 0  0.9 0.2 0  0.9333333333333333 0.2 0  0.9666666666666667 0.2 0  1 0.2 0  0 0.2333333333333333 0  0.03333333333333333 0.2333333333333333 0  0.06666666666666667 0.2333333333333333 0  0.1 0.2333333333333333 0  0.1333333333333333 0.2333333333333333 0  0.1666666666666667 0.2333333333333333 0  0.2 0.2333333333333333 0  0.2333333333333333 0.2333333333333333 0  0.2666666666666667 0.2333333333333333 0  0.3 0.2333333333333333 0  0.3333333333333333 0.2333333333333333 0  0.3666666666666666 0.2333333333333333 0  0.4 0.2333333333333333 0  0.4333333333333333 0.2333333333333333 0  0.4666666666666667 0.2333333333333333 0  0.5 0.2333333333333333 0  0.5333333333333333 0.2333333333333333 0  0.5666666666666667 0.2333333333333333 0  0.6 0.2333333333333333 0  0.6333333333333333 0.2333333333333333 0  0.6666666666666666 0.2333333333333333 0  0.7 0.2333333333333333 0  0.7333333333333333 0.2333333333333333 0  0.7666666666666667 0.2333333333333333 0  0.8 0.2333333333333333 0  0.8333333333333334 0.2333333333333333 0  0.8666666666666667 0.2333333333333333 0  0.9 0.2333333333333333 0  0.9333333333333333 0.2333333333333333 0  0.9666666666666667 0.2333333333333333 0  1 0.2333333333333333 0  0 0.2666666666666667 0  0.03333333333333333 0.2666666666666667 0  0.06666666666666667 0.2666666666666667 0  0.1 0.2666666666666667 0  0.1333333333333333 0.2666666666666667 0  0.1666666666666667 0.2666666666666667 0  0.2 0.2666666666666667 0  0.2333333333333333 0.2666666666666667 0  0.2666666666666667 0.2666666666666667 0  0.3 0.2666666666666667 0  0.3333333333333333 0.2666666666666667 0  0.3666666666666666 0.2666666666666667 0  0.4 0.2666666666666667 0  0.4333333333333333 0.2666666666666667 0  0.4666666666666667 0.2666666666666667 0  0.5 0.2666666666666667 0  0.5333333333333333 0.2666666666666667 0  0.5666666666666667 0.2666666666666667 0  0.6 0.2666666666666667 0  0.6333333333333333 0.2666666666666667 0  0.6666666666666666 0.2666666666666667 0  0.7 0.2666666666666667 0  0.7333333333333333 0.2666666666666667 0  0.7666666666666667 0.2666666666666667 0  0.8 0.2666666666666667 0  0.8333333333333334 0.2666666666666667 0  0.8666666666666667 0.2666666666666667 0  0.9 0.2666666666666667 0  0.9333333333333333 0.2666666666666667 0  0.9666666666666667 0.2666666666666667 0  1 0.2666666666666667 0  0 0.3 0  0.03333333333333333 0.3 0  0.06666666666666667 0.3 0  0.1 0.3 0  0.1333333333333333 0.3 0  0.1666666666666667 0.3 0  0.2 0.3 0  0.2333333333333333 0.3 0  0.2666666666666667 0.3 0  0.3 0.3 0  0.3333333333333333 0.3 0  0.3666666666666666 0.3 0  0.4 0.3 0  0.4333333333333333 0.3 0  0.4666666666666667 0.3 0  0.5 0.3 0  0.5333333333333333 0.3 0  0.5666666666666667 0.3 0  0.6 0.3 0  0.6333333333333333 0.3 0  0.6666666666666666 0.3 0  0.7 0.3 0  0.7333333333333333 0.3 0  0.7666666666666667 0.3 0  0.8 0.3 0  0.8333333333333334 0.3 0  0.8666666666666667 0.3 0  0.9 0.3 0  0.9333333333333333 0.3 0  0.9666666666666667 0.3 0  1 0.3 0  0 0.3333333333333333 0  0.03333333333333333 0.3333333333333333 0  0.06666666666666667 0.3333333333333333 0  0.1 0.3333333333333333 0  0.1333333333333333 0.3333333333333333 0  0.1666666666666667 0.3333333333333333 0  0.2 0.3333333333333333 0  0.2333333333333333 0.3333333333333333 0  0.2666666666666667 0.3333333333333333 0  0.3 0.3333333333333333 0  0.3333333333333333 0.3333333333333333 0  0.3666666666666666 0.3333333333333333 0  0.4 0.3333333333333333 0  0.4333333333333333 0.3333333333333333 0  0.4666666666666667 0.3333333333333333 0  0.5 0.3333333333333333 0  0.5333333333333333 0.33333333333333
[...]
<PointData  Vectors="u_f"> 
<DataArray  type="Float64"  Name="u_f"  NumberOfComponents="3" format="ascii">2.7089927481138872e-06 4.1943104257769967e-10 0.0000000000000000e+00  2.7089927316129806e-06 4.1941882860654575e-10 0.0000000000000000e+00  2.7089927467040991e-06 4.1940440915133256e-10 0.0000000000000000e+00  2.7089927220763925e-06 4.1939322094385403e-10 0.0000000000000000e+00  2.7089927358534037e-06 4.1939990553813838e-10 0.0000000000000000e+00  2.7089927335955527e-06 4.1939297938361000e-10 0.0000000000000000e+00  2.7089927232792064e-06 4.1942037245622926e-10 0.0000000000000000e+00  2.7089927483352812e-06 4.1944148252304886e-10 0.0000000000000000e+00  2.7089927352675009e-06 4.1941035849391364e-10 0.0000000000000000e+00  2.7089927372414536e-06 4.1940615742733570e-10 0.0000000000000000e+00  2.7089927217608355e-06 4.1942467706411468e-10 0.0000000000000000e+00  2.7089927061880060e-06 4.1935293817107686e-10 0.0000000000000000e+00  2.7089926972603600e-06 4.1941256891109280e-10 0.0000000000000000e+00  2.7089927295170010e-06 4.1942793579637441e-10 0.0000000000000000e+00  2.7089927592007759e-06 4.1941015601915793e-10 0.0000000000000000e+00  2.7089927232304173e-06 4.1944615055550249e-10 0.0000000000000000e+00  2.7089927361818628e-06 4.1942225105333353e-10 0.0000000000000000e+00  2.7089927550817293e-06 4.1943239923987810e-10 0.0000000000000000e+00  2.7089927364888004e-06 4.1942433250466427e-10 0.0000000000000000e+00  2.7089927481738977e-06 4.1942294993005391e-10 0.0000000000000000e+00  2.7089927370392499e-06 4.1942416987433839e-10 0.0000000000000000e+00  2.7089927402550477e-06 4.1941892927471747e-10 0.0000000000000000e+00  2.7089927678107507e-06 4.1951712551968959e-10 0.0000000000000000e+00  2.7089928040971000e-06 4.1943369475305400e-10 0.0000000000000000e+00  2.7089927432810018e-06 4.1941239982976400e-10 0.0000000000000000e+00  2.7089927444335629e-06 4.1940623879670874e-10 0.0000000000000000e+00  2.7089927353517434e-06 4.1940919183816594e-10 0.0000000000000000e+00  2.7089927400096928e-06 4.1942289181681747e-10 0.0000000000000000e+00  2.7089927388038431e-06 4.1942201621514297e-10 0.0000000000000000e+00  2.7089927429678842e-06 4.1943979149292043e-10 0.0000000000000000e+00  2.7089927481139414e-06 -1.4751515410263753e-10 0.0000000000000000e+00  4.1705104929806052e-04 -1.1595466394790505e-10 0.0000000000000000e+00  4.1705104931059151e-04 -1.1596759240829063e-10 0.0000000000000000e+00  4.1705104929027693e-04 -1.1597767559691496e-10 0.0000000000000000e+00  4.1705104930028173e-04 -1.1598315125156688e-10 0.0000000000000000e+00  4.1705104929087812e-04 -1.1598091443406483e-10 0.0000000000000000e+00  4.1705104928557171e-04 -1.1596646180226516e-10 0.0000000000000000e+00  4.1705104932081467e-04 -1.1596796125386971e-10 0.0000000000000000e+00  4.1705104929297106e-04 -1.1597782608417651e-10 0.0000000000000000e+00  4.1705104929727122e-04 -1.1595987028673732e-10 0.0000000000000000e+00  4.1705104930081971e-04 -1.1595242680514234e-10 0.0000000000000000e+00  4.1705104931183650e-04 -1.1595850863722890e-10 0.0000000000000000e+00  4.1705104923043070e-04 -1.1603996431276686e-10 0.0000000000000000e+00  4.1705104926094882e-04 -1.1598853951952370e-10 0.0000000000000000e+00  4.1705104929987591e-04 -1.1598313932534299e-10 0.0000000000000000e+00  4.1705104929646935e-04 -1.1598997565372138e-10 0.0000000000000000e+00  4.1705104928476538e-04 -1.1599926065270633e-10 0.0000000000000000e+00  4.1705104929830588e-04 -1.1596217746896037e-10 0.0000000000000000e+00  4.1705104931198049e-04 -1.1596760737028061e-10 0.0000000000000000e+00  4.1705104927986598e-04 -1.1597884035530887e-10 0.0000000000000000e+00  4.1705104930415049e-04 -1.1597137616545239e-10 0.0000000000000000e+00  4.1705104930421988e-04 -1.1599014739134550e-10 0.0000000000000000e+00  4.1705104928825793e-04 -1.1598268808039880e-10 0.0000000000000000e+00  4.1705104935165470e-04 -1.1590947559397824e-10 0.0000000000000000e+00  4.1705104934719689e-04 -1.1594327917457264e-10 0.0000000000000000e+00  4.1705104930234323e-04 -1.1598363784150190e-10 0.0000000000000000e+00  4.1705104929190106e-04 -1.1597405414481843e-10 0.0000000000000000e+00  4.1705104929008275e-04 -1.1597976377029917e-10 0.0000000000000000e+00  4.1705104930169986e-04 -1.1598477896428844e-10 0.0000000000000000e+00  4.1705104930463296e-04 -1.1596870989546981e-10 0.0000000000000000e+00  4.1705104929630845e-04 -1.1597894259557373e-10 0.0000000000000000e+00  4.1705104929806074e-04 -2.3045677639151164e-10 0.0000000000000000e+00  7.5928114572332620e-04 -8.1198980536340698e-10 0.0000000000000000e+00  7.5928114570119839e-04 -8.1199802231483181e-10 0.0000000000000000e+00  7.5928114567930716e-04 -8.1196662349465598e-10 0.0000000000000000e+00  7.5928114570375396e-04 -8.1196148069007101e-10 0.0000000000000000e+00  7.5928114569351389e-04 -8.1198781671978221e-10 0.0000000000000000e+00  7.5928114568463352e-04 -8.1200446778832702e-10 0.0000000000000000e+00  7.5928114568855009e-04 -8.1196880946307615e-10 0.0000000000000000e+00  7.5928114571299484e-04 -8.1196492910350082e-10 0.0000000000000000e+00  7.5928114568528252e-04 -8.1197211075027115e-10 0.0000000000000000e+00  7.5928114570019767e-04 -8.1197587618441619e-10 0.0000000000000000e+00  7.5928114569643300e-04 -8.1195436127650539e-10 0.0000000000000000e+00  7.5928114564255357e-04 -8.1208784792272115e-10 0.0000000000000000e+00  7.5928114564289455e-04 -8.1197773147117375e-10 0.0000000000000000e+00  7.5928114570139528e-04 -8.1197877317262107e-10 0.0000000000000000e+00  7.5928114569457066e-04 -8.1198105834554002e-10 0.0000000000000000e+00  7.5928114568330461e-04 -8.1197264049145262e-10 0.0000000000000000e+00  7.5928114570190193e-04 -8.1197255960997056e-10 0.0000000000000000e+00  7.5928114568160512e-04 -8.1198658235560883e-10 0.0000000000000000e+00  7.5928114569607217e-04 -8.1198608221314666e-10 0.0000000000000000e+00  7.5928114568230422e-04 -8.1198244493169841e-10 0.0000000000000000e+00  7.5928114570327008e-04 -8.1198878577968397e-10 0.0000000000000000e+00  7.5928114568932735e-04 -8.1198225367843518e-10 0.0000000000000000e+00  7.5928114575956902e-04 -8.1189237006572962e-10 0.0000000000000000e+00  7.5928114574533745e-04 -8.1198828162567377e-10 0.0000000000000000e+00  7.5928114568384422e-04 -8.1195775060091679e-10 0.0000000000000000e+00  7.5928114569803285e-04 -8.1195818146286014e-10 0.0000000000000000e+00  7.5928114569358697e-04 -8.1196148296689558e-10 0.0000000000000000e+00  7.5928114571265635e-04 -8.1197260135175420e-10 0.0000000000000000e+00  7.5928114568217530e-04 -8.1200964279371651e-10 0.0000000000000000e+00  7.5928114567087174e-04 -8.1198167135344834e-10 0.0000000000000000e+00  7.5928114572332663e-04 -1.7242550129593033e-10 0.0000000000000000e+00  9.7022470644327172e-04 -1.2204969764874340e-09 0.0000000000000000e+00  9.7022470644054538e-04 -1.2205017740820473e-09 0.0000000000000000e+00  9.7022470645892456e-04 -1.2205083181095200e-09 0.0000000000000000e+00  9.7022470643763040e-04 -1.2204913184699767e-09 0.0000000000000000e+00  9.7022470646213640e-04 -1.2204765529374301e-09 0.0000000000000000e+00  9.7022470643890954e-04 -1.2204908026065830e-09 0.0000000000000000e+00  9.7022470645843537e-04 -1.2205305102101077e-09 0.0000000000000000e+00  9.7022470643341155e-04 -1.2205359852142383e-09 0.0000000000000000e+00  9.7022470644062084e-04 -1.2205198843782961e-09 0.0000000000000000e+00  9.7022470643984737e-04 -1.2205135630459496e-09 0.0000000000000000e+00  9.7022470645173305e-04 -1.2205264932410587e-09 0.0000000000000000e+00  9.7022470640851697e-04 -1.2204679307112332e-09 0.0000000000000000e+00  9.7022470647196513e-04 -1.2204979375242397e-09 0.0000000000000000e+00  9.7022470644126985e-04 -1.2205161347735027e-09 0.0000000000000000e+00  9.7022470643533059e-04 -1.2205005337547620e-09 0.0000000000000000e+00  9.7022470646887190e-04 -1.2205160200649129e-09 0.0000000000000000e+00  9.7022470642874189e-04 -1.2204963710689409e-09 0.0000000000000000e+00  9.7022470644931896e-04 -1.2204811497378010e-09 0.0000000000000000e+00  9.7022470644642566e-04 -1.2204999658496640e-09 0.0000000000000000e+00  9.7022470644137068e-04 -1.2204867713260653e-09 0.0000000000000000e+00  9.7022470645108860e-04 -1.2205003518256374e-09 0.0000000000000000e+00  9.7022470645783624e-04 -1.2204958101027369e-09 0.0000000000000000e+00  9.7022470647472659e-04 -1.2205338738389276e-09 0.0000000000000000e+00  9.7022470643078388e-04 -1.2205100131511964e-09 0.0000000000000000e+00  9.7022470644735005e-04 -1.2205244280527605e-09 0.0000000000000000e+00  9.7022470644606788e-04 -1.2205235804235021e-09 0.0000000000000000e+00  9.7022470644690965e-04 -1.2204973164932353e-09 0.0000000000000000e+00  9.7022470644306876e-04 -1.2205016953689696e-09 0.0000000000000000e+00  9.7022470645208411e-04 -1.2205028756314545e-09 0.0000000000000000e+00  9.7022470643486959e-04 -1.2205046517714535e-09 0.0000000000000000e+00  9.7022470644327215e-04 -8.4661047462140004e-11 0.0000000000000000e+00  1.0134077266185065e-03 -1.0906256165104516e-09 0.0000000000000000e+00  1.0134077266358444e-03 -1.0906179895818491e-09 0.0000000000000000e+00  1.0134077266405418e-03 -1.0906259222554643e-09 0.0000000000000000e+00  1.0134077266378714e-03 -1.0906358627630827e-09 0.0000000000000000e+00  1.0134077266316338e-03 -1.0906385372730018e-09 0.0000000000000000e+00  1.0134077266395192e-03 -1.0906260125695053e-09 0.0000000000000000e+00  1.0134077266384881e-03 -1.0906264770417159e-09 0.0000000000000000e+00  1.0134077266414278e-03 -1.0906225287026644e-09 0.0000000000000000e+00  1.0134077266315280e-03 -1.0906428975004587e-09 0.0000000000000000e+00  1.0134077266238841e-03 -1.0906276897218459e-09 0.0000000000000000e+00  1.0134077266330402e-03 -1.0906026333759589e-09 0.0000000000000000e+00  1.0134077266509092e-03 -1.0906142488675136e-09 0.0000000000000000e+00  1.0134077266409827e-03 -1.0906190156707851e-09 0.0000000000000000e+00  1.0134077266447834e-03 -1.0906292506477136e-09 0.0000000000000000e+00  1.0134077266252244e-03 -1.0906141342673439e-09 0.0000000000000000e+00  1.0134077266570171e-03 -1.0906187315013957e-09 0.0000000000000000e+00  1.0134077266259621e-03 -1.0906417600639595e-09 0.0000000000000000e+00  1.0134077266453919e-03 -1.0906087847054047e-09 0.0000000000000000e+00  1.0134077266362466e-03 -1.0906329032164125e-09 0.0000000000000000e+00  1.0134077266236179e-03 -1.0906455575904889e-09 0.0000000000000000e+00  1.0134077266352988e-03 -1.0906425199812622e-09 0.0000000000000000e+00  1.0134077266509790e-03 -1.0906271441513127e-09 0.0000000000000000e+00  1.0134077266242109e-03 -1.0906143076312713e-09 0.0000000000000000e+00  1.0134077266473682e-03 -1.0906171257979783e-09 0.0000000000000000e+00  1.0134077266377099e-03 -1.0906131735557989e-09 0.0000000000000000e+00  1.0134077266332718e-03 -1.0906092416966204e-09 0.0000000000000000e+00  1.0134077266495335e-03 -1.0906454121989775e-09 0.0000000000000000e+00  1.0134077266101427e-03 -1.0906475809285832e-09 0.0000000000000000e+00  1.0134077266352333e-03 -1.0906214777854986e-09 0.0000000000000000e+00  1.0134077266307207e-03 -1.0906463915587999e-09 0.0000000000000000e+00  1.0134077266185067e-03 -6.5873462326255539e-11 0.0000000000000000e+00  8.8136342354460306e-04 -5.3096366485396590e-10 0.0000000000000000e+00  8.8136342355799957e-04 -5.3094648502002156e-10 0.0000000000000000e+00  8.8136342356403934e-04 -5.3096421465288757e-10 0.0000000000000000e+00  8.8136342355451961e-04 -5.3094113979489099e-10 0.0000000000000000e+00  8.8136342356538928e-04 -5.3094746719876962e-10 0.0000000000000000e+00  8.8136342355413201e-04 -5.3094071771498524e-10 0.0000000000000000e+00  8.8136342356154838e-04 -5.3094440237606844e-10 0.0000000000000000e+00  8.8136342357529075e-04 -5.3099223000334372e-10 0.0000000000000000e+00  8.8136342353229119e-04 -5.3097557763375630e-10 0.0000000000000000e+00  8.8136342355134398e-04 -5.3098159961788294e-10 0.0000000000000000e+00  8.8136342354770757e-04 -5.3097873211997715e-10 0.0000000000000000e+00  8.8136342354465814e-04 -5.3096098112832835e-10 0.0000000000000000e+00  8.8136342356747517e-04 -5.3096214989827029e-10 0.0000000000000000e+00  8.8136342356791341e-04 -5.3094793893513487e-10 0.0000000000000000e+00  8.8136342355893166e-04 -5.3095976996608146e-10 0.0000000000000000e+00  8.8136342355440251e-04 -5.3095705599120330e-10 0.0000000000000000e+00  8.8136342356131517e-04 -5.3093766416798666e-10 0.0000000000000000e+00  8.8136342356200418e-04 -5.3095775194057782e-10 0.0000000000000000e+00  8.8136342354200369e-04 -5.3094732007253481e-10 0.0000000000000000e+00  8.8136342356722245e-04 -5.3094469706221892e-10 0.0000000000000000e+00  8.8136342354886246e-04 -5.3094374751795625e-10 0.0000000000000000e+00  8.8136342357227429e-04 -5.3097459512974760e-10 0.0000000000000000e+00  8.8136342354689810e-04 -5.3095204806136859e-10 0.0000000000000000e+00  8.8136342357989406e-04 -5.3095843845739343e-10 0.0000000000000000e+00  8.8136342355200925e-04 -5.3096112554405772e-10 0.0000000000000000e+00  8.8136342355436533e-04 -5.3096941448650681e-10 0.0000000000000000e+00  8.8136342356335531e-04 -5.3096961658179176e-10 0.0000000000000000e+00  8.8136342356234310e-04 -5.3094103701252504e-10 0.0000000000000000e+00  8.8136342355611729e-04 -5.3095474187008634e-10 0.0000000000000000e+00  8.8136342356817860e-04 -5.3095996132776491e-10 0.0000000000000000e+00  8.8136342354460349e-04 -1.2971333329504606e-10 0.0000000000000000e+00  5.9692334136376198e-04 6.6438453696915367e-11 0.0000000000000000e+00  5.9692334136626692e-04 6.6420931959815938e-11 0.0000000000000000e+00  5.9692334135356593e-04 6.6420829665340964e-11 0.0000000000000000e+00  5.9692334137152650e-04 6.6422381592330659e-11 0.0000000000000000e+00  5.9692334136750660e-04 6.6425506154571545e-11 0.0000000000000000e+00  5.9692334134843245e-04 6.6410795048973958e-11 0.0000000000000000e+00  5.9692334134369665e-04 6.6403322348130428e-11 0.0000000000000000e+00  5.9692334136544336e-04 6.6431750291723324e-11 0.0000000000000000e+00  5.9692334135623502e-04 6.6418432602757815e-11 0.0000000000000000e+00  5.9692334134933862e-04 6.6424681781449696e-11 0.0000000000000000e+00  5.9692334134821170e-04 6.6419090550846188e-11 0.0000000000000000e+00  5.9692334136131169e-04 6.6417930129260977e-11 0.0000000000000000e+00  5.9692334136220127e-04 6.6440736918270404e-11 0.0000000000000000e+00  5.9692334135816164e-04 6.6420398098666206e-11 0.0000000000000000e+00  5.9692334134996616e-04 6.6429462787769705e-11 0.0000000000000000e+00  5.9692334137814772e-04 6.6435698197093995e-11 0.0000000000000000e+00  5.9692334135463040e-04 6.6397754265243303e-11 0.0000000000000000e+00  5.9692334135182969e-04 6.6393445428969411e-11 0.0000000000000000e+00  5.9692334134709996e-04 6.6426687067577816e-11 0.0000000000000000e+00  5.9692334135879850e-04 6.6422086635129635e-11 0.0000000000000000e+00  5.9692334136623700e-04 6.6404232264803686e-11 0.0000000000000000e+00  5.9692334135699407e-04 6.6417593538696529e-11 0.0000000000000000e+00  5.9692334135324858e-04 6.6400150677305148e-11 0.0000000000000000e+00  5.9692334136664021e-04 6.6418538746150502e-11 0.0000000000000000e+00  5.9692334136126355e-04 6.6451393216163113e-11 0.0000000000000000e+00  5.9692334136104616e-04 6.6420086119491073e-11 0.0000000000000000e+00  5.9692334134781727e-04 6.6435785150108229e-11 0.0000000000000000e+00  5.9692334135974837e-04 6.6419826886751632e-11 0.0000000000000000e+00  5.9692334135874841e-04 6.6426946679788018e-11 0.0000000000000000e+00  5.9692334136130843e-04 6.6432006326066356e-11 0.0000000000000000e+00  5.9692334136376220e-04 -1.9715124521205028e-10 0.0000000000000000e+00  2.0926964569832369e-04 2.8922115280515838e-10 0.0000000000000000e+00  2.0926964570389535e-04 2.8924424778865778e-10 0.0000000000000000e+00  2.0926964570533725e-04 2.8923816323251327e-10 0.0000000000000000e+00  2.0926964570058246e-04 2.8925566880144780e-10 0.0000000000000000e+00  2.0926964572060458e-04 2.8926685530130791e-10 0.0000000000000000e+00  2.0926964570479065e-04 2.8924354152581010e-10 0.0000000000000000e+00  2.0926964568361534e-04 2.8925148940536077e-10 0.0000000000000000e+00  2.0926964569835128e-04 2.8924218915978277e-10 0.0000000000000000e+00  2.0926964570264428e-04 2.8924452352837530e-10 0.0000000000000000e+00  2.0926964571403958e-04 2.8926351500993975e-10 0.0000000000000000e+00  2.0926964570942093e-04 2.8924692397909024e-10 0.0000000000000000e+00  2.0926964567962738e-04 2.8923247248570285e-10 0.0000000000000000e+00  2.0926964570583845e-04 2.8924708964518219e-10 0.0000000000000000e+00  2.0926964570501441e-04 2.8923934185514245e-10 0.0000000000000000e+00  2.0926964569821868e-04 2.8923998661662190e-10 0.0000000000000000e+00  2.0926964570388933e-04 2.8924009011727179e-10 0.0000000000000000e+00  2.0926964571531953e-04 2.8924600033370697e-10 0.0000000000000000e+00  2.0926964570294618e-04 2.8922815912288489e-10 0.0000000000000000e+00  2.0926964567842581e-04 2.8923410843836091e-10 0.0000000000000000e+00  2.0926964571346121e-04 2.8925287441942601e-10 0.0000000000000000e+00  2.0926964571019743e-04 2.8926675289841271e-10 0.0000000000000000e+00  2.0926964569703273e-04 2.8924730391063653e-10 0.0000000000000000e+00  2.0926964569979993e-04 2.8925250005796838e-10 0.0000000000000000e+00  2.0926964572418202e-04 2.8924584693265209e-10 0.0000000000000000e+00  2.0926964569555707e-04 2.8923592897643884e-10 0.0000000000000000e+00  2.0926964570425660e-04 2.8926515426941444e-10 0.0000000000000000e+00  2.0926964570851014e-04 2.8925503458383447e-10 0.0000000000000000e+00  2.0926964570346112e-04 2.8923522953051232e-10 0.0000000000000000e+00  2.0926964569249323e-04 2.8926460205814294e-10 0.0000000000000000e+00  2.0926964571658225e-04 2.8925900643652063e-10 0.0000000000000000e+00  2.0926964569832371e-04 -1.5595243147266985e-10 0.0000000000000000e+00  -2.1456884728250419e-04 -1.9648761730075431e-11 0.0000000000000000e+00  -2.1456884729605222e-04 -1.9633995492797374e-11 0.0000000000000000e+00  -2.1456884728754139e-04 -1.9635046464173272e-11 0.0000000000000000e+00  -2.1456884727224737e-04 -1.9636101772357861e-11 0.0000000000000000e+00  -2.1456884727373164e-04 -1.9654967323839978e-11 0.0000000000000000e+00  -2.1456884728092846e-04 -1.9639374219775074e-11 0.0000000000000000e+00  -2.1456884729254623e-04 -1.9639767080432274e-11 0.0000000000000000e+00  -2.1456884728146054e-04 -1.9650051822240472e-11 0.0000000000000000e+00  -2.1456884728916813e-04 -1.9664909403551561e-11 0.0000000000000000e+00  -2.1456884731275972e-04 -1.9651996826727802e-11 0.0000000000000000e+00  -2.1456884727704534e-04 -1.9627841669686563e-11 0.0000000000000000e+00  -2.1456884727739337e-04 -1.9653457084423814e-11 0.0000000000000000e+00  -2.1456884728246348e-04 -1.9639650040807755e-11 0.0000000000000000e+00  -2.1456884728662118e-04 -1.9645040043488049e-11 0.0000000000000000e+00  -2.1456884728404538e-04 -1.9637309953048770e-11 0.0000000000000000e+00  -2.1456884728990940e-04 -1.9643066199222931e-11 0.0000000000000000e+00  -2.1456884726635343e-04 -1.9648363177356826e-11 0.0000000000000000e+00  -2.1456884729619940e-04 -1.9640851011554217e-11 0.0000000000000000e+00  -2.1456884729619777e-04 -1.9641634456044055e-11 0.0000000000000000e+00  -2.1456884727604625e-04 -1.9632651461574252e-11 0.0000000000000000e+00  -2.1456884728335041e-04 -1.9640796150924289e-11 0.0000000000000000e+00  -2.1456884728985421e-04 -1.9656492362615796e-11 0.0000000000000000e+00  -2.1456884729465978e-04 -1.9617796211297833e-11 0.0000000000000000e+00  -2.1456884726583529e-04 -1.9641879431524928e-11 0.0000000000000000e+00  -2.1456884728933222e-04 -1.9654381258355641e-11 0.0000000000000000e+00  -2.1456884729441784e-04 -1.9660522233670708e-11 0.0000000000000000e+00  -2.1456884729330279e-04 -1.9639172341330557e-11 0.0000000000000000e+00  -2.1456884727105789e-04 -1.9633159789762822e-11 0.0000000000000000e+00  -2.1456884728734195e-04 -1.9624596110483228e-11 0.0000000000000000e+00  -2.1456884728305735e-04 -1.9647883255265175e-11 0.0000000000000000e+00  -2.1456884728250424e-04 5.4157253173797117e-11 0.0000000000000000e+00  -6.0130654217234512e-04 -6.5674181945560989e-10 0.0000000000000000e+00  -6.0130654217510680e-04 -6.5676020253712525e-10 0.0000000000000000e+00  -