<?xml version="1.0"?>
<VTKFile type="UnstructuredGrid"  version="0.1"  >
<UnstructuredGrid>
<Piece  NumberOfPoints="961" NumberOfCells="1800">
<Points>
<DataArray  type="Float64"  NumberOfComponents="3"  format="ascii">0 0 0  0.03333333333333333 0 0  0.06666666666666667 0 0  0.1 0 0  0.1333333333333333 0 0  0.1666666666666667 0 0  0.2 0 0  0.2333333333333333 0 0  0.2666666666666667 0 0  0.3 0 0  0.3333333333333333 0 0  0.3666666666666666 0 0  0.4 0 0  0.4333333333333333 0 0  0.4666666666666667 0 0  0.5 0 0  0.5333333333333333 0 0  0.5666666666666667 0 0  0.6 0 0  0.6333333333333333 0 0  0.6666666666666666 0 0  0.7 0 0  0.7333333333333333 0 0  0.7666666666666667 0 0  0.8 0 0  0.8333333333333334 0 0  0.8666666666666667 0 0  0.9 0 0  0.9333333333333333 0 0  0.9666666666666667 0 0  1 0 0  0 0.03333333333333333 0  0.03333333333333333 0.03333333333333333 0  0.06666666666666667 0.03333333333333333 0  0.1 0.03333333333333333 0  0.1333333333333333 0.03333333333333333 0  0.1666666666666667 0.03333333333333333 0  0.2 0.03333333333333333 0  0.2333333333333333 0.03333333333333333 0  0.2666666666666667 0.03333333333333333 0  0.3 0.03333333333333333 0  0.3333333333333333 0.03333333333333333 0  0.3666666666666666 0.03333333333333333 0  0.4 0.03333333333333333 0  0.4333333333333333 0.03333333333333333 0  0.4666666666666667 0.03333333333333333 0  0.5 0.03333333333333333 0  0.5333333333333333 0.03333333333333333 0  0.5666666666666667 0.03333333333333333 0  0.6 0.03333333333333333 0  0.6333333333333333 0.03333333333333333 0  0.6666666666666666 0.03333333333333333 0  0.7 0.03333333333333333 0  0.7333333333333333 0.03333333333333333 0  0.7666666666666667 0.03333333333333333 0  0.8 0.03333333333333333 0  0.8333333333333334 0.03333333333333333 0  0.8666666666666667 0.03333333333333333 0  0.9 0.03333333333333333 0  0.9333333333333333 0.03333333333333333 0  0.9666666666666667 0.03333333333333333 0  1 0.03333333333333333 0  0 0.06666666666666667 0  0.03333333333333333 0.06666666666666667 0  0.06666666666666667 0.06666666666666667 0  0.1 0.06666666666666667 0  0.1333333333333333 0.06666666666666667 0  0.1666666666666667 0.06666666666666667 0  0.2 0.06666666666666667 0  0.2333333333333333 0.06666666666666667 0  0.2666666666666667 0.06666666666666667 0  0.3 0.06666666666666667 0  0.3333333333333333 0.06666666666666667 0  0.3666666666666666 0.06666666666666667 0  0.4 0.06666666666666667 0  0.4333333333333333 0.06666666666666667 0  0.4666666666666667 0.06666666666666667 0  0.5 0.06666666666666667 0  0.5333333333333333 0.06666666666666667 0  0.5666666666666667 0.06666666666666667 0  0.6 0.06666666666666667 0  0.6333333333333333 0.06666666666666667 0  0.6666666666666666 0.06666666666666667 0  0.7 0.06666666666666667 0  0.7333333333333333 0.06666666666666667 0  0.7666666666666667 0.06666666666666667 0  0.8 0.06666666666666667 0  0.8333333333333334 0.06666666666666667 0  0.8666666666666667 0.06666666666666667 0  0.9 0.06666666666666667 0  0.9333333333333333 0.06666666666666667 0  0.9666666666666667 0.06666666666666667 0  1 0.06666666666666667 0  0 0.1 0  0.03333333333333333 0.1 0  0.06666666666666667 0.1 0  0.1 0.1 0  0.1333333333333333 0.1 0  0.1666666666666667 0.1 0  0.2 0.1 0  0.2333333333333333 0.1 0  0.2666666666666667 0.1 0  0.3 0.1 0  0.3333333333333333 0.1 0  0.3666666666666666 0.1 0  0.4 0.1 0  0.4333333333333333 0.1 0  0.4666666666666667 0.1 0  0.5 0.1 0  0.5333333333333333 0.1 0  0.5666666666666667 0.1 0  0.6 0.1 0  0.6333333333333333 0.1 0  0.6666666666666666 0.1 0  0.7 0.1 0  0.7333333333333333 0.1 0  0.7666666666666667 0.1 0  0.8 0.1 0  0.8333333333333334 0.1 0  0.8666666666666667 0.1 0  0.9 0.1 0  0.9333333333333333 0.1 0  0.9666666666666667 0.1 0  1 0.1 0  0 0.1333333333333333 0  0.03333333333333333 0.1333333333333333 0  0.06666666666666667 0.1333333333333333 0  0.1 0.1333333333333333 0  0.1333333333333333 0.1333333333333333 0  0.1666666666666667 0.1333333333333333 0  0.2 0.1333333333333333 0  0.2333333333333333 0.1333333333333333 0  0.2666666666666667 0.1333333333333333 0  0.3 0.1333333333333333 0  0.3333333333333333 0.1333333333333333 0  0.3666666666666666 0.1333333333333333 0  0.4 0.1333333333333333 0  0.4333333333333333 0.1333333333333333 0  0.4666666666666667 0.1333333333333333 0  0.5 0.1333333333333333 0  0.5333333333333333 0.1333333333333333 0  0.5666666666666667 0.1333333333333333 0  0.6 0.1333333333333333 0  0.6333333333333333 0.1333333333333333 0  0.6666666666666666 0.1333333333333333 0  0.7 0.1333333333333333 0  0.7333333333333333 0.1333333333333333 0  0.7666666666666667 0.1333333333333333 0  0.8 0.1333333333333333 0  0.8333333333333334 0.1333333333333333 0  0.8666666666666667 0.1333333333333333 0  0.9 0.1333333333333333 0  0.9333333333333333 0.1333333333333333 0  0.9666666666666667 0.1333333333333333 0  1 0.1333333333333333 0  0 0.1666666666666667 0  0.03333333333333333 0.1666666666666667 0  0.06666666666666667 0.1666666666666667 0  0.1 0.1666666666666667 0  0.1333333333333333 0.1666666666666667 0  0.1666666666666667 0.1666666666666667 0  0.2 0.1666666666666667 0  0.2333333333333333 0.1666666666666667 0  0.2666666666666667 0.1666666666666667 0  0.3 0.1666666666666667 0  0.3333333333333333 0.1666666666666667 0  0.3666666666666666 0.1666666666666667 0  0.4 0.1666666666666667 0  0.4333333333333333 0.1666666666666667 0  0.4666666666666667 0.1666666666666667 0  0.5 0.1666666666666667 0  0.5333333333333333 0.1666666666666667 0  0.5666666666666667 0.1666666666666667 0  0.6 0.1666666666666667 0  0.6333333333333333 0.1666666666666667 0  0.6666666666666666 0.1666666666666667 0  0.7 0.1666666666666667 0  0.7333333333333333 0.1666666666666667 0  0.7666666666666667 0.1666666666666667 0  0.8 0.1666666666666667 0  0.8333333333333334 0.1666666666666667 0  0.8666666666666667 0.1666666666666667 0  0.9 0.1666666666666667 0  0.9333333333333333 0.1666666666666667 0  0.9666666666666667 0.1666666666666667 0  1 0.1666666666666667 0  0 0.2 0  0.03333333333333333 0.2 0  0.06666666666666667 0.2 0  0.1 0.2 0  0.1333333333333333 0.2 0  0.1666666666666667 0.2 0  0.2 0.2 0  0.2333333333333333 0.2 0  0.2666666666666667 0.2 0  0.3 0.2 0  0.3333333333333333 0.2 0  0.3666666666666666 0.2 0  0.4 0.2 0  0.4333333333333333 0.2 0  0.4666666666666667 0.2 0  0.5 0.2 0  0.5333333333333333 0.2 0  0.5666666666666667 0.2 0  0.6 0.2 0  0.6333333333333333 0.2 0  0.6666666666666666 0.2 0  0.7 0.2 0  0.7333333333333333 0.2 0  0.7666666666666667 0.2 0  0.8 0.2 0  0.8333333333333334 0.2 0  0.8666666666666667 0.2 0  0.9 0.2 0  0.9333333333333333 0.2 0  0.9666666666666667 0.2 0  1 0.2 0  0 0.2333333333333333 0  0.03333333333333333 0.2333333333333333 0  0.06666666666666667 0.2333333333333333 0  0.1 0.2333333333333333 0  0.1333333333333333 0.2333333333333333 0  0.1666666666666667 0.2333333333333333 0  0.2 0.2333333333333333 0  0.2333333333333333 0.2333333333333333 0  0.2666666666666667 0.2333333333333333 0  0.3 0.2333333333333333 0  0.3333333333333333 0.2333333333333333 0  0.3666666666666666 0.2333333333333333 0  0.4 0.2333333333333333 0  0.4333333333333333 0.2333333333333333 0  0.4666666666666667 0.2333333333333333 0  0.5 0.2333333333333333 0  0.5333333333333333 0.2333333333333333 0  0.5666666666666667 0.2333333333333333 0  0.6 0.2333333333333333 0  0.6333333333333333 0.2333333333333333 0  0.6666666666666666 0.2333333333333333 0  0.7 0.2333333333333333 0  0.7333333333333333 0.2333333333333333 0  0.7666666666666667 0.2333333333333333 0  0.8 0.2333333333333333 0  0.8333333333333334 0.2333333333333333 0  0.8666666666666667 0.2333333333333333 0  0.9 0.2333333333333333 0  0.9333333333333333 0.2333333333333333 0  0.9666666666666667 0.2333333333333333 0  1 0.2333333333333333 0  0 0.2666666666666667 0  0.03333333333333333 0.2666666666666667 0  0.06666666666666667 0.2666666666666667 0  0.1 0.2666666666666667 0  0.1333333333333333 0.2666666666666667 0  0.1666666666666667 0.2666666666666667 0  0.2 0.2666666666666667 0  0.2333333333333333 0.2666666666666667 0  0.2666666666666667 0.2666666666666667 0  0.3 0.2666666666666667 0  0.3333333333333333 0.2666666666666667 0  0.3666666666666666 0.2666666666666667 0  0.4 0.2666666666666667 0  0.4333333333333333 0.2666666666666667 0  0.4666666666666667 0.2666666666666667 0  0.5 0.2666666666666667 0  0.5333333333333333 0.2666666666666667 0  0.5666666666666667 0.2666666666666667 0  0.6 0.2666666666666667 0  0.6333333333333333 0.2666666666666667 0  0.6666666666666666 0.2666666666666667 0  0.7 0.2666666666666667 0  0.7333333333333333 0.2666666666666667 0  0.7666666666666667 0.2666666666666667 0  0.8 0.2666666666666667 0  0.8333333333333334 0.2666666666666667 0  0.8666666666666667 0.2666666666666667 0  0.9 0.2666666666666667 0  0.9333333333333333 0.2666666666666667 0  0.9666666666666667 0.2666666666666667 0  1 0.2666666666666667 0  0 0.3 0  0.03333333333333333 0.3 0  0.06666666666666667 0.3 0  0.1 0.3 0  0.1333333333333333 0.3 0  0.1666666666666667 0.3 0  0.2 0.3 0  0.2333333333333333 0.3 0  0.2666666666666667 0.3 0  0.3 0.3 0  0.3333333333333333 0.3 0  0.3666666666666666 0.3 0  0.4 0.3 0  0.4333333333333333 0.3 0  0.4666666666666667 0.3 0  0.5 0.3 0  0.5333333333333333 0.3 0  0.5666666666666667 0.3 0  0.6 0.3 0  0.6333333333333333 0.3 0  0.6666666666666666 0.3 0  0.7 0.3 0  0.7333333333333333 0.3 0  0.7666666666666667 0.3 0  0.8 0.3 0  0.8333333333333334 0.3 0  0.8666666666666667 0.3 0  0.9 0.3 0  0.9333333333333333 0.3 0  0.9666666666666667 0.3 0  1 0.3 0  0 0.3333333333333333 0  0.03333333333333333 0.3333333333333333 0  0.06666666666666667 0.3333333333333333 0  0.1 0.3333333333333333 0  0.1333333333333333 0.3333333333333333 0  0.1666666666666667 0.3333333333333333 0  0.2 0.3333333333333333 0  0.2333333333333333 0.3333333333333333 0  0.2666666666666667 0.3333333333333333 0  0.3 0.3333333333333333 0  0.3333333333333333 0.3333333333333333 0  0.3666666666666666 0.3333333333333333 0  0.4 0.3333333333333333 0  0.4333333333333333 0.3333333333333333 0  0.4666666666666667 0.3333333333333333 0  0.5 0.3333333333333333 0  0.5333333333333333 0.33333333333333
[...]
<PointData  Vectors="u_f"> 
<DataArray  type="Float64"  Name="u_f"  NumberOfComponents="3" format="ascii">2.7083944517628943e-06 -2.1740442220996928e-09 0.0000000000000000e+00  2.7083944386593894e-06 -2.1740592819931293e-09 0.0000000000000000e+00  2.7083944445847170e-06 -2.1740669295215731e-09 0.0000000000000000e+00  2.7083944280668426e-06 -2.1740630216774727e-09 0.0000000000000000e+00  2.7083944431096599e-06 -2.1740443274841439e-09 0.0000000000000000e+00  2.7083944275913116e-06 -2.1740377069662080e-09 0.0000000000000000e+00  2.7083944389905590e-06 -2.1740463689826246e-09 0.0000000000000000e+00  2.7083944343560284e-06 -2.1740402080579896e-09 0.0000000000000000e+00  2.7083944344163100e-06 -2.1740479892685613e-09 0.0000000000000000e+00  2.7083944463669827e-06 -2.1740820290425990e-09 0.0000000000000000e+00  2.7083944285843865e-06 -2.1740222618015295e-09 0.0000000000000000e+00  2.7083944276736025e-06 -2.1741485721677757e-09 0.0000000000000000e+00  2.7083943717436240e-06 -2.1740664260722943e-09 0.0000000000000000e+00  2.7083944358370486e-06 -2.1740580878528565e-09 0.0000000000000000e+00  2.7083944446660321e-06 -2.1740592466481384e-09 0.0000000000000000e+00  2.7083944176773127e-06 -2.1740395901711715e-09 0.0000000000000000e+00  2.7083944565601094e-06 -2.1740370013132240e-09 0.0000000000000000e+00  2.7083944458689544e-06 -2.1740403320365080e-09 0.0000000000000000e+00  2.7083944332548042e-06 -2.1740283865138120e-09 0.0000000000000000e+00  2.7083944512175406e-06 -2.1740440558372896e-09 0.0000000000000000e+00  2.7083944416405117e-06 -2.1740492337700250e-09 0.0000000000000000e+00  2.7083944312655643e-06 -2.1740692206033939e-09 0.0000000000000000e+00  2.7083944759081851e-06 -2.1739295085225138e-09 0.0000000000000000e+00  2.7083945114815631e-06 -2.1740335237347558e-09 0.0000000000000000e+00  2.7083944356615162e-06 -2.1740403614725970e-09 0.0000000000000000e+00  2.7083944499867543e-06 -2.1740645651476855e-09 0.0000000000000000e+00  2.7083944174491966e-06 -2.1740668819250977e-09 0.0000000000000000e+00  2.7083944448219404e-06 -2.1740564721747790e-09 0.0000000000000000e+00  2.7083944461819094e-06 -2.1740492493825363e-09 0.0000000000000000e+00  2.7083944442931208e-06 -2.1740444355248904e-09 0.0000000000000000e+00  2.7083944517629485e-06 4.5063729247208234e-10 0.0000000000000000e+00  4.1704889390080152e-04 -6.2321317983613997e-09 0.0000000000000000e+00  4.1704889389311507e-04 -6.2321453362518264e-09 0.0000000000000000e+00  4.1704889387935090e-04 -6.2321585958275555e-09 0.0000000000000000e+00  4.1704889388785517e-04 -6.2321670315709787e-09 0.0000000000000000e+00  4.1704889388612760e-04 -6.2321830674632109e-09 0.0000000000000000e+00  4.1704889388076687e-04 -6.2321610743137218e-09 0.0000000000000000e+00  4.1704889389679171e-04 -6.2321278822231527e-09 0.0000000000000000e+00  4.1704889388103359e-04 -6.2321430752566159e-09 0.0000000000000000e+00  4.1704889389142295e-04 -6.2321434217676303e-09 0.0000000000000000e+00  4.1704889389269245e-04 -6.2321338739580387e-09 0.0000000000000000e+00  4.1704889389307636e-04 -6.2321361621667237e-09 0.0000000000000000e+00  4.1704889383826712e-04 -6.2322449393033275e-09 0.0000000000000000e+00  4.1704889384449120e-04 -6.2321575004581006e-09 0.0000000000000000e+00  4.1704889389865708e-04 -6.2321579240558894e-09 0.0000000000000000e+00  4.1704889388042025e-04 -6.2321682540089282e-09 0.0000000000000000e+00  4.1704889388756244e-04 -6.2321454593087730e-09 0.0000000000000000e+00  4.1704889389719243e-04 -6.2321576232982068e-09 0.0000000000000000e+00  4.1704889388961873e-04 -6.2321607352837025e-09 0.0000000000000000e+00  4.1704889388503961e-04 -6.2321847129568481e-09 0.0000000000000000e+00  4.1704889385959533e-04 -6.2321730752391488e-09 0.0000000000000000e+00  4.1704889388791881e-04 -6.2321616648786451e-09 0.0000000000000000e+00  4.1704889388114298e-04 -6.2321616586986928e-09 0.0000000000000000e+00  4.1704889395946759e-04 -6.2320878085929746e-09 0.0000000000000000e+00  4.1704889393546054e-04 -6.2321367002562619e-09 0.0000000000000000e+00  4.1704889388466512e-04 -6.2321629515013632e-09 0.0000000000000000e+00  4.1704889389082350e-04 -6.2321499385816284e-09 0.0000000000000000e+00  4.1704889387288104e-04 -6.2321602730883163e-09 0.0000000000000000e+00  4.1704889387498287e-04 -6.2321509502506756e-09 0.0000000000000000e+00  4.1704889389343924e-04 -6.2321474576017971e-09 0.0000000000000000e+00  4.1704889388639095e-04 -6.2321509504675160e-09 0.0000000000000000e+00  4.1704889390080174e-04 1.2698416956530515e-09 0.0000000000000000e+00  7.5927779577371823e-04 -9.4246255730179307e-09 0.0000000000000000e+00  7.5927779577826147e-04 -9.4246448144623060e-09 0.0000000000000000e+00  7.5927779574561690e-04 -9.4246273127287367e-09 0.0000000000000000e+00  7.5927779576276042e-04 -9.4246016311234568e-09 0.0000000000000000e+00  7.5927779577804311e-04 -9.4246237729170637e-09 0.0000000000000000e+00  7.5927779574812770e-04 -9.4246478378684842e-09 0.0000000000000000e+00  7.5927779575926983e-04 -9.4246412616402070e-09 0.0000000000000000e+00  7.5927779575651996e-04 -9.4246499825288016e-09 0.0000000000000000e+00  7.5927779575255341e-04 -9.4246449407718591e-09 0.0000000000000000e+00  7.5927779575171543e-04 -9.4246359254139545e-09 0.0000000000000000e+00  7.5927779577818915e-04 -9.4246263141785358e-09 0.0000000000000000e+00  7.5927779568986614e-04 -9.4247407533441449e-09 0.0000000000000000e+00  7.5927779571167552e-04 -9.4246572299866438e-09 0.0000000000000000e+00  7.5927779576576029e-04 -9.4246481152073999e-09 0.0000000000000000e+00  7.5927779574941616e-04 -9.4246458041220491e-09 0.0000000000000000e+00  7.5927779576369229e-04 -9.4246463232380492e-09 0.0000000000000000e+00  7.5927779575424520e-04 -9.4246261932899936e-09 0.0000000000000000e+00  7.5927779574823829e-04 -9.4246398236628656e-09 0.0000000000000000e+00  7.5927779575903445e-04 -9.4246295570272337e-09 0.0000000000000000e+00  7.5927779576338199e-04 -9.4246391686963332e-09 0.0000000000000000e+00  7.5927779574553732e-04 -9.4246428000146695e-09 0.0000000000000000e+00  7.5927779576556676e-04 -9.4246495172976494e-09 0.0000000000000000e+00  7.5927779582722046e-04 -9.4245323349921237e-09 0.0000000000000000e+00  7.5927779581228254e-04 -9.4246323515583333e-09 0.0000000000000000e+00  7.5927779574534921e-04 -9.4246377009034321e-09 0.0000000000000000e+00  7.5927779577299593e-04 -9.4246289552950280e-09 0.0000000000000000e+00  7.5927779575389522e-04 -9.4246204882181620e-09 0.0000000000000000e+00  7.5927779575903759e-04 -9.4246252503593642e-09 0.0000000000000000e+00  7.5927779576252601e-04 -9.4246481660564818e-09 0.0000000000000000e+00  7.5927779574626005e-04 -9.4246288577168325e-09 0.0000000000000000e+00  7.5927779577371866e-04 1.9869983118524164e-09 0.0000000000000000e+00  9.7022074270931586e-04 -1.0835397044016426e-08 0.0000000000000000e+00  9.7022074271054014e-04 -1.0835408957446738e-08 0.0000000000000000e+00  9.7022074271309842e-04 -1.0835412771453140e-08 0.0000000000000000e+00  9.7022074272001433e-04 -1.0835414064038970e-08 0.0000000000000000e+00  9.7022074271543900e-04 -1.0835408346824074e-08 0.0000000000000000e+00  9.7022074270498447e-04 -1.0835422868627972e-08 0.0000000000000000e+00  9.7022074269198185e-04 -1.0835436709552906e-08 0.0000000000000000e+00  9.7022074270368300e-04 -1.0835419930006404e-08 0.0000000000000000e+00  9.7022074270676256e-04 -1.0835414231873466e-08 0.0000000000000000e+00  9.7022074271846523e-04 -1.0835404692845912e-08 0.0000000000000000e+00  9.7022074271362491e-04 -1.0835413568124896e-08 0.0000000000000000e+00  9.7022074266838051e-04 -1.0835375284512505e-08 0.0000000000000000e+00  9.7022074274666164e-04 -1.0835410958016586e-08 0.0000000000000000e+00  9.7022074269909097e-04 -1.0835420581828750e-08 0.0000000000000000e+00  9.7022074271154758e-04 -1.0835404086343217e-08 0.0000000000000000e+00  9.7022074272279726e-04 -1.0835404450418307e-08 0.0000000000000000e+00  9.7022074270843809e-04 -1.0835417796296529e-08 0.0000000000000000e+00  9.7022074270579177e-04 -1.0835394744206778e-08 0.0000000000000000e+00  9.7022074272137284e-04 -1.0835421039145227e-08 0.0000000000000000e+00  9.7022074269636203e-04 -1.0835401922926202e-08 0.0000000000000000e+00  9.7022074270944184e-04 -1.0835402964627650e-08 0.0000000000000000e+00  9.7022074272372296e-04 -1.0835369645577006e-08 0.0000000000000000e+00  9.7022074273673663e-04 -1.0835451722934070e-08 0.0000000000000000e+00  9.7022074269654873e-04 -1.0835416819647212e-08 0.0000000000000000e+00  9.7022074269864883e-04 -1.0835425625320416e-08 0.0000000000000000e+00  9.7022074272290091e-04 -1.0835410703879597e-08 0.0000000000000000e+00  9.7022074271058481e-04 -1.0835421406472923e-08 0.0000000000000000e+00  9.7022074270294552e-04 -1.0835413447995296e-08 0.0000000000000000e+00  9.7022074271940631e-04 -1.0835413182365763e-08 0.0000000000000000e+00  9.7022074270435390e-04 -1.0835423544085926e-08 0.0000000000000000e+00  9.7022074270931586e-04 2.3667588639800280e-09 0.0000000000000000e+00  1.0134038449731253e-03 -1.0012161544390059e-08 0.0000000000000000e+00  1.0134038449987821e-03 -1.0012150025284078e-08 0.0000000000000000e+00  1.0134038449986441e-03 -1.0012156479105930e-08 0.0000000000000000e+00  1.0134038449969283e-03 -1.0012135819958794e-08 0.0000000000000000e+00  1.0134038450180136e-03 -1.0012138953194652e-08 0.0000000000000000e+00  1.0134038450137078e-03 -1.0012142170347758e-08 0.0000000000000000e+00  1.0134038449980030e-03 -1.0012146803902583e-08 0.0000000000000000e+00  1.0134038449865063e-03 -1.0012164612356947e-08 0.0000000000000000e+00  1.0134038449906195e-03 -1.0012176546603940e-08 0.0000000000000000e+00  1.0134038449931830e-03 -1.0012172182907036e-08 0.0000000000000000e+00  1.0134038450038312e-03 -1.0012163458440575e-08 0.0000000000000000e+00  1.0134038449755168e-03 -1.0012157708699614e-08 0.0000000000000000e+00  1.0134038450150384e-03 -1.0012169433045066e-08 0.0000000000000000e+00  1.0134038449978863e-03 -1.0012166694025118e-08 0.0000000000000000e+00  1.0134038449823646e-03 -1.0012173779936837e-08 0.0000000000000000e+00  1.0134038450073561e-03 -1.0012173724750946e-08 0.0000000000000000e+00  1.0134038449870347e-03 -1.0012166177185942e-08 0.0000000000000000e+00  1.0134038449984592e-03 -1.0012137154828508e-08 0.0000000000000000e+00  1.0134038450105437e-03 -1.0012143439081141e-08 0.0000000000000000e+00  1.0134038449929733e-03 -1.0012153213055305e-08 0.0000000000000000e+00  1.0134038450023966e-03 -1.0012147684816848e-08 0.0000000000000000e+00  1.0134038450041877e-03 -1.0012171618362965e-08 0.0000000000000000e+00  1.0134038450030263e-03 -1.0012155799853269e-08 0.0000000000000000e+00  1.0134038449951081e-03 -1.0012154791762089e-08 0.0000000000000000e+00  1.0134038450087791e-03 -1.0012151101679995e-08 0.0000000000000000e+00  1.0134038449820361e-03 -1.0012153657252935e-08 0.0000000000000000e+00  1.0134038450033301e-03 -1.0012170990284647e-08 0.0000000000000000e+00  1.0134038449708766e-03 -1.0012186141467906e-08 0.0000000000000000e+00  1.0134038449886103e-03 -1.0012146089196511e-08 0.0000000000000000e+00  1.0134038450151956e-03 -1.0012178482121659e-08 0.0000000000000000e+00  1.0134038449731257e-03 2.2476262811600997e-09 0.0000000000000000e+00  8.8136030617946284e-04 -7.1822563080291627e-09 0.0000000000000000e+00  8.8136030619476678e-04 -7.1822457160244588e-09 0.0000000000000000e+00  8.8136030618721347e-04 -7.1822460717511916e-09 0.0000000000000000e+00  8.8136030619998266e-04 -7.1822584946481041e-09 0.0000000000000000e+00  8.8136030620967261e-04 -7.1822681381927475e-09 0.0000000000000000e+00  8.8136030617566228e-04 -7.1822743570679887e-09 0.0000000000000000e+00  8.8136030619733992e-04 -7.1822533141132835e-09 0.0000000000000000e+00  8.8136030619269563e-04 -7.1822646255945491e-09 0.0000000000000000e+00  8.8136030617281429e-04 -7.1822585418108986e-09 0.0000000000000000e+00  8.8136030618560517e-04 -7.1822614754451369e-09 0.0000000000000000e+00  8.8136030618796851e-04 -7.1822651894880990e-09 0.0000000000000000e+00  8.8136030618996464e-04 -7.1822532098130346e-09 0.0000000000000000e+00  8.8136030618658431e-04 -7.1822712297952424e-09 0.0000000000000000e+00  8.8136030619084512e-04 -7.1822519109388319e-09 0.0000000000000000e+00  8.8136030620441727e-04 -7.1822627372396253e-09 0.0000000000000000e+00  8.8136030618606281e-04 -7.1822466971190047e-09 0.0000000000000000e+00  8.8136030619927793e-04 -7.1822657144587909e-09 0.0000000000000000e+00  8.8136030618927779e-04 -7.1822628433830180e-09 0.0000000000000000e+00  8.8136030619942604e-04 -7.1822671911421498e-09 0.0000000000000000e+00  8.8136030618928246e-04 -7.1822650409524014e-09 0.0000000000000000e+00  8.8136030618190945e-04 -7.1822672587963654e-09 0.0000000000000000e+00  8.8136030620054049e-04 -7.1822555593875625e-09 0.0000000000000000e+00  8.8136030617782081e-04 -7.1822627056893421e-09 0.0000000000000000e+00  8.8136030621230690e-04 -7.1822576520061757e-09 0.0000000000000000e+00  8.8136030619296148e-04 -7.1822633503559538e-09 0.0000000000000000e+00  8.8136030618297793e-04 -7.1822646738415458e-09 0.0000000000000000e+00  8.8136030619837121e-04 -7.1822608406447649e-09 0.0000000000000000e+00  8.8136030618452986e-04 -7.1822530436048415e-09 0.0000000000000000e+00  8.8136030619900059e-04 -7.1822605944224516e-09 0.0000000000000000e+00  8.8136030619891462e-04 -7.1822841493651701e-09 0.0000000000000000e+00  8.8136030617946327e-04 1.6332448350094722e-09 0.0000000000000000e+00  5.9692152980399585e-04 -3.1566944474494506e-09 0.0000000000000000e+00  5.9692152982501669e-04 -3.1567179570725183e-09 0.0000000000000000e+00  5.9692152979393251e-04 -3.1567009103243907e-09 0.0000000000000000e+00  5.9692152980045843e-04 -3.1566924085530551e-09 0.0000000000000000e+00  5.9692152979781070e-04 -3.1566827284165884e-09 0.0000000000000000e+00  5.9692152980563799e-04 -3.1567014163215446e-09 0.0000000000000000e+00  5.9692152981000710e-04 -3.1566969021373792e-09 0.0000000000000000e+00  5.9692152980507355e-04 -3.1567046132542805e-09 0.0000000000000000e+00  5.9692152978804583e-04 -3.1566917548875653e-09 0.0000000000000000e+00  5.9692152981137613e-04 -3.1567026149070462e-09 0.0000000000000000e+00  5.9692152980254367e-04 -3.1567110809539202e-09 0.0000000000000000e+00  5.9692152978739867e-04 -3.1566978677820441e-09 0.0000000000000000e+00  5.9692152980332083e-04 -3.1566989635309697e-09 0.0000000000000000e+00  5.9692152979680868e-04 -3.1567127603830854e-09 0.0000000000000000e+00  5.9692152979496402e-04 -3.1567055338503451e-09 0.0000000000000000e+00  5.9692152980176326e-04 -3.1566986635864387e-09 0.0000000000000000e+00  5.9692152980628124e-04 -3.1566922421280216e-09 0.0000000000000000e+00  5.9692152979520319e-04 -3.1567157440532539e-09 0.0000000000000000e+00  5.9692152978805461e-04 -3.1567037036628678e-09 0.0000000000000000e+00  5.9692152980972521e-04 -3.1566902062131821e-09 0.0000000000000000e+00  5.9692152981223134e-04 -3.1567046252347145e-09 0.0000000000000000e+00  5.9692152980154751e-04 -3.1566993698357339e-09 0.0000000000000000e+00  5.9692152979167888e-04 -3.1567006640478672e-09 0.0000000000000000e+00  5.9692152980091845e-04 -3.1566914575451195e-09 0.0000000000000000e+00  5.9692152981466104e-04 -3.1566859271924680e-09 0.0000000000000000e+00  5.9692152980740198e-04 -3.1566946499242063e-09 0.0000000000000000e+00  5.9692152978559250e-04 -3.1566978665352116e-09 0.0000000000000000e+00  5.9692152980099175e-04 -3.1567048905931962e-09 0.0000000000000000e+00  5.9692152980151065e-04 -3.1566858585082604e-09 0.0000000000000000e+00  5.9692152979584146e-04 -3.1566958591348893e-09 0.0000000000000000e+00  5.9692152980399607e-04 7.0128843874471542e-10 0.0000000000000000e+00  2.0926944380572149e-04 1.0229876699023978e-09 0.0000000000000000e+00  2.0926944380711862e-04 1.0230133072180190e-09 0.0000000000000000e+00  2.0926944380326729e-04 1.0230113014439999e-09 0.0000000000000000e+00  2.0926944381224752e-04 1.0230228147766049e-09 0.0000000000000000e+00  2.0926944379897266e-04 1.0230080203500703e-09 0.0000000000000000e+00  2.0926944380648672e-04 1.0230105317688776e-09 0.0000000000000000e+00  2.0926944380031729e-04 1.0229971938324365e-09 0.0000000000000000e+00  2.0926944380710174e-04 1.0230120542868834e-09 0.0000000000000000e+00  2.0926944379342136e-04 1.0230000442406056e-09 0.0000000000000000e+00  2.0926944381544717e-04 1.0230289455739720e-09 0.0000000000000000e+00  2.0926944379796067e-04 1.0230183054713493e-09 0.0000000000000000e+00  2.0926944378817298e-04 1.0230098380150125e-09 0.0000000000000000e+00  2.0926944379862593e-04 1.0229981564413354e-09 0.0000000000000000e+00  2.0926944380960996e-04 1.0230089941669091e-09 0.0000000000000000e+00  2.0926944380222592e-04 1.0230013446597963e-09 0.0000000000000000e+00  2.0926944380168992e-04 1.0230278920547210e-09 0.0000000000000000e+00  2.0926944382468614e-04 1.0230007241844455e-09 0.0000000000000000e+00  2.0926944379075663e-04 1.0229893977954001e-09 0.0000000000000000e+00  2.0926944380219274e-04 1.0230130608195227e-09 0.0000000000000000e+00  2.0926944381621034e-04 1.0230259864745352e-09 0.0000000000000000e+00  2.0926944380027102e-04 1.0229982549817603e-09 0.0000000000000000e+00  2.0926944380782365e-04 1.0230109905354744e-09 0.0000000000000000e+00  2.0926944380125867e-04 1.0230112818063880e-09 0.0000000000000000e+00  2.0926944380701365e-04 1.0230093443235532e-09 0.0000000000000000e+00  2.0926944380012194e-04 1.0230076021055298e-09 0.0000000000000000e+00  2.0926944381503438e-04 1.0230277212115637e-09 0.0000000000000000e+00  2.0926944381192714e-04 1.0230146441883754e-09 0.0000000000000000e+00  2.0926944378972154e-04 1.0229876137271728e-09 0.0000000000000000e+00  2.0926944380132489e-04 1.0229995816521962e-09 0.0000000000000000e+00  2.0926944380113109e-04 1.0230126745453937e-09 0.0000000000000000e+00  2.0926944380572152e-04 -2.7570301536316897e-10 0.0000000000000000e+00  -2.1456742139127401e-04 4.4930100760775041e-09 0.0000000000000000e+00  -2.1456742139396148e-04 4.4930089584819047e-09 0.0000000000000000e+00  -2.1456742138698101e-04 4.4930137973846207e-09 0.0000000000000000e+00  -2.1456742139147817e-04 4.4930147764191825e-09 0.0000000000000000e+00  -2.1456742139797796e-04 4.4930119665466221e-09 0.0000000000000000e+00  -2.1456742138380354e-04 4.4930169467208812e-09 0.0000000000000000e+00  -2.1456742138638540e-04 4.4930451844412030e-09 0.0000000000000000e+00  -2.1456742139023557e-04 4.4930062878751134e-09 0.0000000000000000e+00  -2.1456742140208118e-04 4.4929933543731877e-09 0.0000000000000000e+00  -2.1456742138578231e-04 4.4929998687477310e-09 0.0000000000000000e+00  -2.1456742139208250e-04 4.4930105875498789e-09 0.0000000000000000e+00  -2.1456742139602228e-04 4.4930004362733582e-09 0.0000000000000000e+00  -2.1456742140604410e-04 4.4929968357463636e-09 0.0000000000000000e+00  -2.1456742137709921e-04 4.4930039706640203e-09 0.0000000000000000e+00  -2.1456742140654424e-04 4.4930000132718806e-09 0.0000000000000000e+00  -2.1456742139068399e-04 4.4929880149485388e-09 0.0000000000000000e+00  -2.1456742140612157e-04 4.4930142396848970e-09 0.0000000000000000e+00  -2.1456742137763518e-04 4.4930223857294997e-09 0.0000000000000000e+00  -2.1456742140069427e-04 4.4929906541676772e-09 0.0000000000000000e+00  -2.1456742140292664e-04 4.4930141830353335e-09 0.0000000000000000e+00  -2.1456742137960952e-04 4.4930069741750886e-09 0.0000000000000000e+00  -2.1456742140388128e-04 4.4929908165811626e-09 0.0000000000000000e+00  -2.1456742139620692e-04 4.4930183220313370e-09 0.0000000000000000e+00  -2.1456742138906826e-04 4.4930267526790101e-09 0.0000000000000000e+00  -2.1456742138996723e-04 4.4929976774667202e-09 0.0000000000000000e+00  -2.1456742140123940e-04 4.4929875254312579e-09 0.0000000000000000e+00  -2.1456742139506834e-04 4.4930094662679922e-09 0.0000000000000000e+00  -2.1456742139039630e-04 4.4930220578125526e-09 0.0000000000000000e+00  -2.1456742139517703e-04 4.4930259104165524e-09 0.0000000000000000e+00  -2.1456742138468787e-04 4.4930114982254937e-09 0.0000000000000000e+00  -2.1456742139127407e-04 -1.0500996967748042e-09 0.0000000000000000e+00  -6.0130374966114856e-04 6.8096943533265536e-09 0.0000000000000000e+00  -6.0130374968098230e-04 6.8096735766519020e-09 0.0