<?xml version="1.0"?>
<VTKFile type="UnstructuredGrid"  version="0.1"  >
<UnstructuredGrid>
<Piece  NumberOfPoints="961" NumberOfCells="1800">
<Points>
<DataArray  type="Float64"  NumberOfComponents="3"  format="ascii">0 0 0  0.03333333333333333 0 0  0.06666666666666667 0 0  0.1 0 0  0.1333333333333333 0 0  0.1666666666666667 0 0  0.2 0 0  0.2333333333333333 0 0  0.2666666666666667 0 0  0.3 0 0  0.3333333333333333 0 0  0.3666666666666666 0 0  0.4 0 0  0.4333333333333333 0 0  0.4666666666666667 0 0  0.5 0 0  0.5333333333333333 0 0  0.5666666666666667 0 0  0.6 0 0  0.6333333333333333 0 0  0.6666666666666666 0 0  0.7 0 0  0.7333333333333333 0 0  0.7666666666666667 0 0  0.8 0 0  0.8333333333333334 0 0  0.8666666666666667 0 0  0.9 0 0  0.9333333333333333 0 0  0.9666666666666667 0 0  1 0 0  0 0.03333333333333333 0  0.03333333333333333 0.03333333333333333 0  0.06666666666666667 0.03333333333333333 0  0.1 0.03333333333333333 0  0.1333333333333333 0.03333333333333333 0  0.1666666666666667 0.03333333333333333 0  0.2 0.03333333333333333 0  0.2333333333333333 0.03333333333333333 0  0.2666666666666667 0.03333333333333333 0  0.3 0.03333333333333333 0  0.3333333333333333 0.03333333333333333 0  0.3666666666666666 0.03333333333333333 0  0.4 0.03333333333333333 0  0.4333333333333333 0.03333333333333333 0  0.4666666666666667 0.03333333333333333 0  0.5 0.03333333333333333 0  0.5333333333333333 0.03333333333333333 0  0.5666666666666667 0.03333333333333333 0  0.6 0.03333333333333333 0  0.6333333333333333 0.03333333333333333 0  0.6666666666666666 0.03333333333333333 0  0.7 0.03333333333333333 0  0.7333333333333333 0.03333333333333333 0  0.7666666666666667 0.03333333333333333 0  0.8 0.03333333333333333 0  0.8333333333333334 0.03333333333333333 0  0.8666666666666667 0.03333333333333333 0  0.9 0.03333333333333333 0  0.9333333333333333 0.03333333333333333 0  0.9666666666666667 0.03333333333333333 0  1 0.03333333333333333 0  0 0.06666666666666667 0  0.03333333333333333 0.06666666666666667 0  0.06666666666666667 0.06666666666666667 0  0.1 0.06666666666666667 0  0.1333333333333333 0.06666666666666667 0  0.1666666666666667 0.06666666666666667 0  0.2 0.06666666666666667 0  0.2333333333333333 0.06666666666666667 0  0.2666666666666667 0.06666666666666667 0  0.3 0.06666666666666667 0  0.3333333333333333 0.06666666666666667 0  0.3666666666666666 0.06666666666666667 0  0.4 0.06666666666666667 0  0.4333333333333333 0.06666666666666667 0  0.4666666666666667 0.06666666666666667 0  0.5 0.06666666666666667 0  0.5333333333333333 0.06666666666666667 0  0.5666666666666667 0.06666666666666667 0  0.6 0.06666666666666667 0  0.6333333333333333 0.06666666666666667 0  0.6666666666666666 0.06666666666666667 0  0.7 0.06666666666666667 0  0.7333333333333333 0.06666666666666667 0  0.7666666666666667 0.06666666666666667 0  0.8 0.06666666666666667 0  0.8333333333333334 0.06666666666666667 0  0.8666666666666667 0.06666666666666667 0  0.9 0.06666666666666667 0  0.9333333333333333 0.06666666666666667 0  0.9666666666666667 0.06666666666666667 0  1 0.06666666666666667 0  0 0.1 0  0.03333333333333333 0.1 0  0.06666666666666667 0.1 0  0.1 0.1 0  0.1333333333333333 0.1 0  0.1666666666666667 0.1 0  0.2 0.1 0  0.2333333333333333 0.1 0  0.2666666666666667 0.1 0  0.3 0.1 0  0.3333333333333333 0.1 0  0.3666666666666666 0.1 0  0.4 0.1 0  0.4333333333333333 0.1 0  0.4666666666666667 0.1 0  0.5 0.1 0  0.5333333333333333 0.1 0  0.5666666666666667 0.1 0  0.6 0.1 0  0.6333333333333333 0.1 0  0.6666666666666666 0.1 0  0.7 0.1 0  0.7333333333333333 0.1 0  0.7666666666666667 0.1 0  0.8 0.1 0  0.8333333333333334 0.1 0  0.8666666666666667 0.1 0  0.9 0.1 0  0.9333333333333333 0.1 0  0.9666666666666667 0.1 0  1 0.1 0  0 0.1333333333333333 0  0.03333333333333333 0.1333333333333333 0  0.06666666666666667 0.1333333333333333 0  0.1 0.1333333333333333 0  0.1333333333333333 0.1333333333333333 0  0.1666666666666667 0.1333333333333333 0  0.2 0.1333333333333333 0  0.2333333333333333 0.1333333333333333 0  0.2666666666666667 0.1333333333333333 0  0.3 0.1333333333333333 0  0.3333333333333333 0.1333333333333333 0  0.3666666666666666 0.1333333333333333 0  0.4 0.1333333333333333 0  0.4333333333333333 0.1333333333333333 0  0.4666666666666667 0.1333333333333333 0  0.5 0.1333333333333333 0  0.5333333333333333 0.1333333333333333 0  0.5666666666666667 0.1333333333333333 0  0.6 0.1333333333333333 0  0.6333333333333333 0.1333333333333333 0  0.6666666666666666 0.1333333333333333 0  0.7 0.1333333333333333 0  0.7333333333333333 0.1333333333333333 0  0.7666666666666667 0.1333333333333333 0  0.8 0.1333333333333333 0  0.8333333333333334 0.1333333333333333 0  0.8666666666666667 0.1333333333333333 0  0.9 0.1333333333333333 0  0.9333333333333333 0.1333333333333333 0  0.9666666666666667 0.1333333333333333 0  1 0.1333333333333333 0  0 0.1666666666666667 0  0.03333333333333333 0.1666666666666667 0  0.06666666666666667 0.1666666666666667 0  0.1 0.1666666666666667 0  0.1333333333333333 0.1666666666666667 0  0.1666666666666667 0.1666666666666667 0  0.2 0.1666666666666667 0  0.2333333333333333 0.1666666666666667 0  0.2666666666666667 0.1666666666666667 0  0.3 0.1666666666666667 0  0.3333333333333333 0.1666666666666667 0  0.3666666666666666 0.1666666666666667 0  0.4 0.1666666666666667 0  0.4333333333333333 0.1666666666666667 0  0.4666666666666667 0.1666666666666667 0  0.5 0.1666666666666667 0  0.5333333333333333 0.1666666666666667 0  0.5666666666666667 0.1666666666666667 0  0.6 0.1666666666666667 0  0.6333333333333333 0.1666666666666667 0  0.6666666666666666 0.1666666666666667 0  0.7 0.1666666666666667 0  0.7333333333333333 0.1666666666666667 0  0.7666666666666667 0.1666666666666667 0  0.8 0.1666666666666667 0  0.8333333333333334 0.1666666666666667 0  0.8666666666666667 0.1666666666666667 0  0.9 0.1666666666666667 0  0.9333333333333333 0.1666666666666667 0  0.9666666666666667 0.1666666666666667 0  1 0.1666666666666667 0  0 0.2 0  0.03333333333333333 0.2 0  0.06666666666666667 0.2 0  0.1 0.2 0  0.1333333333333333 0.2 0  0.1666666666666667 0.2 0  0.2 0.2 0  0.2333333333333333 0.2 0  0.2666666666666667 0.2 0  0.3 0.2 0  0.3333333333333333 0.2 0  0.3666666666666666 0.2 0  0.4 0.2 0  0.4333333333333333 0.2 0  0.4666666666666667 0.2 0  0.5 0.2 0  0.5333333333333333 0.2 0  0.5666666666666667 0.2 0  0.6 0.2 0  0.6333333333333333 0.2 0  0.6666666666666666 0.2 0  0.7 0.2 0  0.7333333333333333 0.2 0  0.7666666666666667 0.2 0  0.8 0.2 0  0.8333333333333334 0.2 0  0.8666666666666667 0.2 0  0.9 0.2 0  0.9333333333333333 0.2 0  0.9666666666666667 0.2 0  1 0.2 0  0 0.2333333333333333 0  0.03333333333333333 0.2333333333333333 0  0.06666666666666667 0.2333333333333333 0  0.1 0.2333333333333333 0  0.1333333333333333 0.2333333333333333 0  0.1666666666666667 0.2333333333333333 0  0.2 0.2333333333333333 0  0.2333333333333333 0.2333333333333333 0  0.2666666666666667 0.2333333333333333 0  0.3 0.2333333333333333 0  0.3333333333333333 0.2333333333333333 0  0.3666666666666666 0.2333333333333333 0  0.4 0.2333333333333333 0  0.4333333333333333 0.2333333333333333 0  0.4666666666666667 0.2333333333333333 0  0.5 0.2333333333333333 0  0.5333333333333333 0.2333333333333333 0  0.5666666666666667 0.2333333333333333 0  0.6 0.2333333333333333 0  0.6333333333333333 0.2333333333333333 0  0.6666666666666666 0.2333333333333333 0  0.7 0.2333333333333333 0  0.7333333333333333 0.2333333333333333 0  0.7666666666666667 0.2333333333333333 0  0.8 0.2333333333333333 0  0.8333333333333334 0.2333333333333333 0  0.8666666666666667 0.2333333333333333 0  0.9 0.2333333333333333 0  0.9333333333333333 0.2333333333333333 0  0.9666666666666667 0.2333333333333333 0  1 0.2333333333333333 0  0 0.2666666666666667 0  0.03333333333333333 0.2666666666666667 0  0.06666666666666667 0.2666666666666667 0  0.1 0.2666666666666667 0  0.1333333333333333 0.2666666666666667 0  0.1666666666666667 0.2666666666666667 0  0.2 0.2666666666666667 0  0.2333333333333333 0.2666666666666667 0  0.2666666666666667 0.2666666666666667 0  0.3 0.2666666666666667 0  0.3333333333333333 0.2666666666666667 0  0.3666666666666666 0.2666666666666667 0  0.4 0.2666666666666667 0  0.4333333333333333 0.2666666666666667 0  0.4666666666666667 0.2666666666666667 0  0.5 0.2666666666666667 0  0.5333333333333333 0.2666666666666667 0  0.5666666666666667 0.2666666666666667 0  0.6 0.2666666666666667 0  0.6333333333333333 0.2666666666666667 0  0.6666666666666666 0.2666666666666667 0  0.7 0.2666666666666667 0  0.7333333333333333 0.2666666666666667 0  0.7666666666666667 0.2666666666666667 0  0.8 0.2666666666666667 0  0.8333333333333334 0.2666666666666667 0  0.8666666666666667 0.2666666666666667 0  0.9 0.2666666666666667 0  0.9333333333333333 0.2666666666666667 0  0.9666666666666667 0.2666666666666667 0  1 0.2666666666666667 0  0 0.3 0  0.03333333333333333 0.3 0  0.06666666666666667 0.3 0  0.1 0.3 0  0.1333333333333333 0.3 0  0.1666666666666667 0.3 0  0.2 0.3 0  0.2333333333333333 0.3 0  0.2666666666666667 0.3 0  0.3 0.3 0  0.3333333333333333 0.3 0  0.3666666666666666 0.3 0  0.4 0.3 0  0.4333333333333333 0.3 0  0.4666666666666667 0.3 0  0.5 0.3 0  0.5333333333333333 0.3 0  0.5666666666666667 0.3 0  0.6 0.3 0  0.6333333333333333 0.3 0  0.6666666666666666 0.3 0  0.7 0.3 0  0.7333333333333333 0.3 0  0.7666666666666667 0.3 0  0.8 0.3 0  0.8333333333333334 0.3 0  0.8666666666666667 0.3 0  0.9 0.3 0  0.9333333333333333 0.3 0  0.9666666666666667 0.3 0  1 0.3 0  0 0.3333333333333333 0  0.03333333333333333 0.3333333333333333 0  0.06666666666666667 0.3333333333333333 0  0.1 0.3333333333333333 0  0.1333333333333333 0.3333333333333333 0  0.1666666666666667 0.3333333333333333 0  0.2 0.3333333333333333 0  0.2333333333333333 0.3333333333333333 0  0.2666666666666667 0.3333333333333333 0  0.3 0.3333333333333333 0  0.3333333333333333 0.3333333333333333 0  0.3666666666666666 0.3333333333333333 0  0.4 0.3333333333333333 0  0.4333333333333333 0.3333333333333333 0  0.4666666666666667 0.3333333333333333 0  0.5 0.3333333333333333 0  0.5333333333333333 0.33333333333333
[...]
<PointData  Vectors="u_f"> 
<DataArray  type="Float64"  Name="u_f"  NumberOfComponents="3" format="ascii">2.7079222421032821e-06 -4.0859786324797670e-09 0.0000000000000000e+00  2.7079222188123426e-06 -4.0859848915246987e-09 0.0000000000000000e+00  2.7079222314666082e-06 -4.0859777035895557e-09 0.0000000000000000e+00  2.7079222433178595e-06 -4.0859636710860979e-09 0.0000000000000000e+00  2.7079222408091783e-06 -4.0859756163377434e-09 0.0000000000000000e+00  2.7079222308410236e-06 -4.0859866594247611e-09 0.0000000000000000e+00  2.7079222243583619e-06 -4.0859814767757463e-09 0.0000000000000000e+00  2.7079222370464547e-06 -4.0859803738710863e-09 0.0000000000000000e+00  2.7079222358942188e-06 -4.0859827045262864e-09 0.0000000000000000e+00  2.7079222381439384e-06 -4.0859800796728268e-09 0.0000000000000000e+00  2.7079222294290671e-06 -4.0859747568364711e-09 0.0000000000000000e+00  2.7079222241161512e-06 -4.0860226985760251e-09 0.0000000000000000e+00  2.7079222133949638e-06 -4.0859887684148270e-09 0.0000000000000000e+00  2.7079222324767052e-06 -4.0859789673356080e-09 0.0000000000000000e+00  2.7079222428178797e-06 -4.0859624339029989e-09 0.0000000000000000e+00  2.7079222548620648e-06 -4.0859756354197016e-09 0.0000000000000000e+00  2.7079222302359303e-06 -4.0859802125960132e-09 0.0000000000000000e+00  2.7079222343606149e-06 -4.0859628448698324e-09 0.0000000000000000e+00  2.7079222440034548e-06 -4.0859798570319107e-09 0.0000000000000000e+00  2.7079222278976857e-06 -4.0859782061714728e-09 0.0000000000000000e+00  2.7079222380325908e-06 -4.0859721009206193e-09 0.0000000000000000e+00  2.7079222282503767e-06 -4.0859996657850728e-09 0.0000000000000000e+00  2.7079222524704774e-06 -4.0859253296857308e-09 0.0000000000000000e+00  2.7079222543066280e-06 -4.0859764738332416e-09 0.0000000000000000e+00  2.7079222341251804e-06 -4.0859735042577013e-09 0.0000000000000000e+00  2.7079222399071221e-06 -4.0859757822206758e-09 0.0000000000000000e+00  2.7079222468122974e-06 -4.0859782256871119e-09 0.0000000000000000e+00  2.7079222420839833e-06 -4.0859833309783017e-09 0.0000000000000000e+00  2.7079222298518517e-06 -4.0859740684223017e-09 0.0000000000000000e+00  2.7079222436182920e-06 -4.0859727106217110e-09 0.0000000000000000e+00  2.7079222421033363e-06 9.2355261952826631e-10 0.0000000000000000e+00  4.1704756987650106e-04 -9.6973409801325017e-09 0.0000000000000000e+00  4.1704756986611321e-04 -9.6973414717097667e-09 0.0000000000000000e+00  4.1704756986847840e-04 -9.6973348679427543e-09 0.0000000000000000e+00  4.1704756987869093e-04 -9.6973382939131991e-09 0.0000000000000000e+00  4.1704756987518863e-04 -9.6973488096984903e-09 0.0000000000000000e+00  4.1704756986883954e-04 -9.6973528616872695e-09 0.0000000000000000e+00  4.1704756986286201e-04 -9.6973462591128795e-09 0.0000000000000000e+00  4.1704756986629481e-04 -9.6973466000944628e-09 0.0000000000000000e+00  4.1704756986602094e-04 -9.6973502053919469e-09 0.0000000000000000e+00  4.1704756987524024e-04 -9.6973597464794850e-09 0.0000000000000000e+00  4.1704756985518629e-04 -9.6973566133520470e-09 0.0000000000000000e+00  4.1704756984202820e-04 -9.6973725140442682e-09 0.0000000000000000e+00  4.1704756985067233e-04 -9.6973657942676234e-09 0.0000000000000000e+00  4.1704756986277636e-04 -9.6973483586703865e-09 0.0000000000000000e+00  4.1704756987224209e-04 -9.6973540972440653e-09 0.0000000000000000e+00  4.1704756986596337e-04 -9.6973460307799020e-09 0.0000000000000000e+00  4.1704756987255695e-04 -9.6973451165806301e-09 0.0000000000000000e+00  4.1704756987564443e-04 -9.6973536882830058e-09 0.0000000000000000e+00  4.1704756986534082e-04 -9.6973422708751880e-09 0.0000000000000000e+00  4.1704756987619683e-04 -9.6973405113234823e-09 0.0000000000000000e+00  4.1704756987167701e-04 -9.6973473942725541e-09 0.0000000000000000e+00  4.1704756985957482e-04 -9.6973359868393963e-09 0.0000000000000000e+00  4.1704756990088715e-04 -9.6973052767044404e-09 0.0000000000000000e+00  4.1704756989225170e-04 -9.6973396609837184e-09 0.0000000000000000e+00  4.1704756986958840e-04 -9.6973410612308242e-09 0.0000000000000000e+00  4.1704756986790518e-04 -9.6973299042483682e-09 0.0000000000000000e+00  4.1704756987847311e-04 -9.6973576379231000e-09 0.0000000000000000e+00  4.1704756986473920e-04 -9.6973379360180620e-09 0.0000000000000000e+00  4.1704756987786325e-04 -9.6973423609723886e-09 0.0000000000000000e+00  4.1704756985734082e-04 -9.6973434330314967e-09 0.0000000000000000e+00  4.1704756987650127e-04 2.6417558337546096e-09 0.0000000000000000e+00  7.5927586745803250e-04 -1.3752387362361493e-08 0.0000000000000000e+00  7.5927586745214821e-04 -1.3752378802260080e-08 0.0000000000000000e+00  7.5927586744741274e-04 -1.3752380659606822e-08 0.0000000000000000e+00  7.5927586746358925e-04 -1.3752382939250310e-08 0.0000000000000000e+00  7.5927586745050824e-04 -1.3752394112062118e-08 0.0000000000000000e+00  7.5927586744908295e-04 -1.3752386780470187e-08 0.0000000000000000e+00  7.5927586745228818e-04 -1.3752402230025884e-08 0.0000000000000000e+00  7.5927586744909282e-04 -1.3752401745929614e-08 0.0000000000000000e+00  7.5927586744957691e-04 -1.3752410688754393e-08 0.0000000000000000e+00  7.5927586743924696e-04 -1.3752388745803465e-08 0.0000000000000000e+00  7.5927586746131124e-04 -1.3752384344810006e-08 0.0000000000000000e+00  7.5927586741911712e-04 -1.3752429468437063e-08 0.0000000000000000e+00  7.5927586743295187e-04 -1.3752384271951620e-08 0.0000000000000000e+00  7.5927586744928808e-04 -1.3752387260012808e-08 0.0000000000000000e+00  7.5927586745712654e-04 -1.3752375812030489e-08 0.0000000000000000e+00  7.5927586745078049e-04 -1.3752389770916619e-08 0.0000000000000000e+00  7.5927586745199393e-04 -1.3752395770132500e-08 0.0000000000000000e+00  7.5927586744902104e-04 -1.3752376517087161e-08 0.0000000000000000e+00  7.5927586745098247e-04 -1.3752374283630686e-08 0.0000000000000000e+00  7.5927586745044157e-04 -1.3752391639864324e-08 0.0000000000000000e+00  7.5927586745859596e-04 -1.3752401946940697e-08 0.0000000000000000e+00  7.5927586744231612e-04 -1.3752400811997863e-08 0.0000000000000000e+00  7.5927586747985912e-04 -1.3752342194498987e-08 0.0000000000000000e+00  7.5927586747145275e-04 -1.3752381497911942e-08 0.0000000000000000e+00  7.5927586745340057e-04 -1.3752383700902336e-08 0.0000000000000000e+00  7.5927586745160264e-04 -1.3752394428215471e-08 0.0000000000000000e+00  7.5927586744928602e-04 -1.3752365285728436e-08 0.0000000000000000e+00  7.5927586744781053e-04 -1.3752382292090033e-08 0.0000000000000000e+00  7.5927586745593121e-04 -1.3752380418913940e-08 0.0000000000000000e+00  7.5927586745855519e-04 -1.3752375781455987e-08 0.0000000000000000e+00  7.5927586745803293e-04 3.9670088077303415e-09 0.0000000000000000e+00  9.7021848714816980e-04 -1.5389538751643325e-08 0.0000000000000000e+00  9.7021848715398199e-04 -1.5389533693840191e-08 0.0000000000000000e+00  9.7021848715612763e-04 -1.5389545430979229e-08 0.0000000000000000e+00  9.7021848715537302e-04 -1.5389542761239799e-08 0.0000000000000000e+00  9.7021848714915902e-04 -1.5389546392449716e-08 0.0000000000000000e+00  9.7021848715044445e-04 -1.5389539371806968e-08 0.0000000000000000e+00  9.7021848715498227e-04 -1.5389528233147529e-08 0.0000000000000000e+00  9.7021848715720272e-04 -1.5389524049861866e-08 0.0000000000000000e+00  9.7021848716493417e-04 -1.5389539986115919e-08 0.0000000000000000e+00  9.7021848713914577e-04 -1.5389545731303231e-08 0.0000000000000000e+00  9.7021848715974496e-04 -1.5389536851470598e-08 0.0000000000000000e+00  9.7021848713919130e-04 -1.5389528705642835e-08 0.0000000000000000e+00  9.7021848716149876e-04 -1.5389545064085214e-08 0.0000000000000000e+00  9.7021848715210350e-04 -1.5389549668475000e-08 0.0000000000000000e+00  9.7021848714755159e-04 -1.5389564576905393e-08 0.0000000000000000e+00  9.7021848715125674e-04 -1.5389554412293185e-08 0.0000000000000000e+00  9.7021848715492416e-04 -1.5389550262834631e-08 0.0000000000000000e+00  9.7021848714655586e-04 -1.5389536246268945e-08 0.0000000000000000e+00  9.7021848716100458e-04 -1.5389537242650742e-08 0.0000000000000000e+00  9.7021848715083607e-04 -1.5389538697433217e-08 0.0000000000000000e+00  9.7021848714657277e-04 -1.5389532987590895e-08 0.0000000000000000e+00  9.7021848715239342e-04 -1.5389545881139971e-08 0.0000000000000000e+00  9.7021848715741631e-04 -1.5389552289425332e-08 0.0000000000000000e+00  9.7021848716278463e-04 -1.5389533340173442e-08 0.0000000000000000e+00  9.7021848715572148e-04 -1.5389545300441287e-08 0.0000000000000000e+00  9.7021848715182746e-04 -1.5389562937158027e-08 0.0000000000000000e+00  9.7021848714582857e-04 -1.5389549040288261e-08 0.0000000000000000e+00  9.7021848715228716e-04 -1.5389534115811676e-08 0.0000000000000000e+00  9.7021848716004918e-04 -1.5389533595828314e-08 0.0000000000000000e+00  9.7021848714357256e-04 -1.5389544771350627e-08 0.0000000000000000e+00  9.7021848714817045e-04 4.6248681280082754e-09 0.0000000000000000e+00  1.0134015684821317e-03 -1.4214609166704299e-08 0.0000000000000000e+00  1.0134015684878210e-03 -1.4214607241269661e-08 0.0000000000000000e+00  1.0134015684779550e-03 -1.4214611007354327e-08 0.0000000000000000e+00  1.0134015684796563e-03 -1.4214625638879486e-08 0.0000000000000000e+00  1.0134015684755047e-03 -1.4214609590193668e-08 0.0000000000000000e+00  1.0134015684844324e-03 -1.4214617714554227e-08 0.0000000000000000e+00  1.0134015684774731e-03 -1.4214624369170321e-08 0.0000000000000000e+00  1.0134015684880246e-03 -1.4214611287186908e-08 0.0000000000000000e+00  1.0134015684875462e-03 -1.4214607731979564e-08 0.0000000000000000e+00  1.0134015684875341e-03 -1.4214615960857213e-08 0.0000000000000000e+00  1.0134015684777980e-03 -1.4214609849426407e-08 0.0000000000000000e+00  1.0134015684872806e-03 -1.4214610697055666e-08 0.0000000000000000e+00  1.0134015684794455e-03 -1.4214612146742391e-08 0.0000000000000000e+00  1.0134015684871440e-03 -1.4214608985750957e-08 0.0000000000000000e+00  1.0134015684869751e-03 -1.4214593822424633e-08 0.0000000000000000e+00  1.0134015684911150e-03 -1.4214596595922210e-08 0.0000000000000000e+00  1.0134015684782310e-03 -1.4214608668947082e-08 0.0000000000000000e+00  1.0134015684806559e-03 -1.4214603939331945e-08 0.0000000000000000e+00  1.0134015684844680e-03 -1.4214610012598834e-08 0.0000000000000000e+00  1.0134015684922048e-03 -1.4214612296362290e-08 0.0000000000000000e+00  1.0134015684759492e-03 -1.4214610063990017e-08 0.0000000000000000e+00  1.0134015684915842e-03 -1.4214610289395649e-08 0.0000000000000000e+00  1.0134015684735457e-03 -1.4214608128147038e-08 0.0000000000000000e+00  1.0134015684936501e-03 -1.4214592705804815e-08 0.0000000000000000e+00  1.0134015684873498e-03 -1.4214612141755061e-08 0.0000000000000000e+00  1.0134015684880578e-03 -1.4214616559553653e-08 0.0000000000000000e+00  1.0134015684770737e-03 -1.4214623229348577e-08 0.0000000000000000e+00  1.0134015684822898e-03 -1.4214620626179161e-08 0.0000000000000000e+00  1.0134015684851146e-03 -1.4214614511604169e-08 0.0000000000000000e+00  1.0134015684788895e-03 -1.4214604592346913e-08 0.0000000000000000e+00  1.0134015684821320e-03 4.4519101161974829e-09 0.0000000000000000e+00  8.8135835706309139e-04 -1.0442357092194619e-08 0.0000000000000000e+00  8.8135835707576463e-04 -1.0442359866234298e-08 0.0000000000000000e+00  8.8135835706701577e-04 -1.0442360034610895e-08 0.0000000000000000e+00  8.8135835706974145e-04 -1.0442358915280572e-08 0.0000000000000000e+00  8.8135835707646719e-04 -1.0442368782929805e-08 0.0000000000000000e+00  8.8135835706481288e-04 -1.0442349996958762e-08 0.0000000000000000e+00  8.8135835707469734e-04 -1.0442356167803847e-08 0.0000000000000000e+00  8.8135835708040328e-04 -1.0442361248375227e-08 0.0000000000000000e+00  8.8135835706883777e-04 -1.0442368033312423e-08 0.0000000000000000e+00  8.8135835706789722e-04 -1.0442364931952108e-08 0.0000000000000000e+00  8.8135835707890242e-04 -1.0442363785516731e-08 0.0000000000000000e+00  8.8135835706610146e-04 -1.0442360545486959e-08 0.0000000000000000e+00  8.8135835707284856e-04 -1.0442365114314914e-08 0.0000000000000000e+00  8.8135835706451690e-04 -1.0442375022838568e-08 0.0000000000000000e+00  8.8135835707271596e-04 -1.0442369661241985e-08 0.0000000000000000e+00  8.8135835708136388e-04 -1.0442375937688361e-08 0.0000000000000000e+00  8.8135835706358698e-04 -1.0442368130240097e-08 0.0000000000000000e+00  8.8135835707609856e-04 -1.0442363543956487e-08 0.0000000000000000e+00  8.8135835706722003e-04 -1.0442376912711375e-08 0.0000000000000000e+00  8.8135835706105190e-04 -1.0442362437528170e-08 0.0000000000000000e+00  8.8135835707694879e-04 -1.0442356328591029e-08 0.0000000000000000e+00  8.8135835706904030e-04 -1.0442357641668280e-08 0.0000000000000000e+00  8.8135835706972887e-04 -1.0442369724450971e-08 0.0000000000000000e+00  8.8135835707455162e-04 -1.0442366289915329e-08 0.0000000000000000e+00  8.8135835707134661e-04 -1.0442379625602051e-08 0.0000000000000000e+00  8.8135835706257552e-04 -1.0442359810939987e-08 0.0000000000000000e+00  8.8135835707030567e-04 -1.0442363793648247e-08 0.0000000000000000e+00  8.8135835707351729e-04 -1.0442354545078456e-08 0.0000000000000000e+00  8.8135835707924622e-04 -1.0442375817016659e-08 0.0000000000000000e+00  8.8135835706564046e-04 -1.0442374803287628e-08 0.0000000000000000e+00  8.8135835706309182e-04 3.4567818146164062e-09 0.0000000000000000e+00  5.9692027907082279e-04 -4.8516962649551403e-09 0.0000000000000000e+00  5.9692027906523720e-04 -4.8516894871194691e-09 0.0000000000000000e+00  5.9692027905718201e-04 -4.8516838961057060e-09 0.0000000000000000e+00  5.9692027907957382e-04 -4.8516850886196755e-09 0.0000000000000000e+00  5.9692027906004474e-04 -4.8516841818471886e-09 0.0000000000000000e+00  5.9692027907761011e-04 -4.8516911097364404e-09 0.0000000000000000e+00  5.9692027905816321e-04 -4.8516909739401183e-09 0.0000000000000000e+00  5.9692027907421970e-04 -4.8516806887104191e-09 0.0000000000000000e+00  5.9692027906957552e-04 -4.8516809460458048e-09 0.0000000000000000e+00  5.9692027906922901e-04 -4.8516764182006920e-09 0.0000000000000000e+00  5.9692027907097349e-04 -4.8516846350979068e-09 0.0000000000000000e+00  5.9692027907571677e-04 -4.8516728354004029e-09 0.0000000000000000e+00  5.9692027907544019e-04 -4.8516876036434550e-09 0.0000000000000000e+00  5.9692027905519770e-04 -4.8516856462790629e-09 0.0000000000000000e+00  5.9692027906684344e-04 -4.8516664376318033e-09 0.0000000000000000e+00  5.9692027907760252e-04 -4.8516740423884715e-09 0.0000000000000000e+00  5.9692027907324403e-04 -4.8516943568135268e-09 0.0000000000000000e+00  5.9692027906519827e-04 -4.8516896600497156e-09 0.0000000000000000e+00  5.9692027906750231e-04 -4.8516853070322032e-09 0.0000000000000000e+00  5.9692027906421393e-04 -4.8516899261671388e-09 0.0000000000000000e+00  5.9692027906799844e-04 -4.8516873518375005e-09 0.0000000000000000e+00  5.9692027907171140e-04 -4.8516783526342082e-09 0.0000000000000000e+00  5.9692027906527948e-04 -4.8516817653231764e-09 0.0000000000000000e+00  5.9692027907177233e-04 -4.8516971414783866e-09 0.0000000000000000e+00  5.9692027906165846e-04 -4.8516683983572222e-09 0.0000000000000000e+00  5.9692027907313648e-04 -4.8516809671877471e-09 0.0000000000000000e+00  5.9692027906937646e-04 -4.8516878157676101e-09 0.0000000000000000e+00  5.9692027906920039e-04 -4.8516870936889632e-09 0.0000000000000000e+00  5.9692027907296615e-04 -4.8516898952131668e-09 0.0000000000000000e+00  5.9692027906223287e-04 -4.8516863813681359e-09 0.0000000000000000e+00  5.9692027907082290e-04 1.8324466645520761e-09 0.0000000000000000e+00  2.0926920963673846e-04 1.4329335200092283e-09 0.0000000000000000e+00  2.0926920963937451e-04 1.4329338372738891e-09 0.0000000000000000e+00  2.0926920962777477e-04 1.4329256888304890e-09 0.0000000000000000e+00  2.0926920964001617e-04 1.4329297812464567e-09 0.0000000000000000e+00  2.0926920963338619e-04 1.4329326117324109e-09 0.0000000000000000e+00  2.0926920963970118e-04 1.4329381797610879e-09 0.0000000000000000e+00  2.0926920964494877e-04 1.4329407517596916e-09 0.0000000000000000e+00  2.0926920964071767e-04 1.4329283813923743e-09 0.0000000000000000e+00  2.0926920963904773e-04 1.4329138180635328e-09 0.0000000000000000e+00  2.0926920964280257e-04 1.4329234170610194e-09 0.0000000000000000e+00  2.0926920964568519e-04 1.4329297907603308e-09 0.0000000000000000e+00  2.0926920963897596e-04 1.4329228789985863e-09 0.0000000000000000e+00  2.0926920962171928e-04 1.4329215306847646e-09 0.0000000000000000e+00  2.0926920964226114e-04 1.4328981117687611e-09 0.0000000000000000e+00  2.0926920962946818e-04 1.4329058810124513e-09 0.0000000000000000e+00  2.0926920964367101e-04 1.4329237744140555e-09 0.0000000000000000e+00  2.0926920964217842e-04 1.4329281153833712e-09 0.0000000000000000e+00  2.0926920963089364e-04 1.4329286253514156e-09 0.0000000000000000e+00  2.0926920963588181e-04 1.4329436767203125e-09 0.0000000000000000e+00  2.0926920965804035e-04 1.4329259262707648e-09 0.0000000000000000e+00  2.0926920963322966e-04 1.4329308042183115e-09 0.0000000000000000e+00  2.0926920964294086e-04 1.4329264916008826e-09 0.0000000000000000e+00  2.0926920962829814e-04 1.4329203035982983e-09 0.0000000000000000e+00  2.0926920964463200e-04 1.4329443251003167e-09 0.0000000000000000e+00  2.0926920964316249e-04 1.4329223176122539e-09 0.0000000000000000e+00  2.0926920963543753e-04 1.4329220380778288e-09 0.0000000000000000e+00  2.0926920964822699e-04 1.4329257036027436e-09 0.0000000000000000e+00  2.0926920964172628e-04 1.4329383086185161e-09 0.0000000000000000e+00  2.0926920964316762e-04 1.4329418801566551e-09 0.0000000000000000e+00  2.0926920964352242e-04 1.4329336436489336e-09 0.0000000000000000e+00  2.0926920963673846e-04 -9.1109678969376725e-11 0.0000000000000000e+00  -2.1456648519116835e-04 7.2401940285141131e-09 0.0000000000000000e+00  -2.1456648519064858e-04 7.2401979366292640e-09 0.0000000000000000e+00  -2.1456648518941319e-04 7.2402020172951907e-09 0.0000000000000000e+00  -2.1456648519439992e-04 7.2401918326794532e-09 0.0000000000000000e+00  -2.1456648520515439e-04 7.2401943422280117e-09 0.0000000000000000e+00  -2.1456648518821298e-04 7.2401980161012833e-09 0.0000000000000000e+00  -2.1456648519976878e-04 7.2401854694426927e-09 0.0000000000000000e+00  -2.1456648519196524e-04 7.2402020973635212e-09 0.0000000000000000e+00  -2.1456648518914349e-04 7.2402169661121146e-09 0.0000000000000000e+00  -2.1456648518801310e-04 7.2401960317944672e-09 0.0000000000000000e+00  -2.1456648519109056e-04 7.2401945087072553e-09 0.0000000000000000e+00  -2.1456648519099976e-04 7.2401907328647694e-09 0.0000000000000000e+00  -2.1456648519648191e-04 7.2402023673840722e-09 0.0000000000000000e+00  -2.1456648518633102e-04 7.2402105163018107e-09 0.0000000000000000e+00  -2.1456648519102935e-04 7.2402004568030039e-09 0.0000000000000000e+00  -2.1456648519524126e-04 7.2401960248555733e-09 0.0000000000000000e+00  -2.1456648518909270e-04 7.2401894865201620e-09 0.0000000000000000e+00  -2.1456648518940023e-04 7.2401924693229688e-09 0.0000000000000000e+00  -2.1456648518993230e-04 7.2401899668759345e-09 0.0000000000000000e+00  -2.1456648519384768e-04 7.2402016150561847e-09 0.0000000000000000e+00  -2.1456648519266525e-04 7.2401904167114159e-09 0.0000000000000000e+00  -2.1456648520135470e-04 7.2401965496094248e-09 0.0000000000000000e+00  -2.1456648520290023e-04 7.2402072925892812e-09 0.0000000000000000e+00  -2.1456648518734328e-04 7.2402147403534747e-09 0.0000000000000000e+00  -2.1456648517776138e-04 7.2402215568409534e-09 0.0000000000000000e+00  -2.1456648518883916e-04 7.2402182079030729e-09 0.0000000000000000e+00  -2.1456648518606875e-04 7.2401985939810412e-09 0.0000000000000000e+00  -2.1456648519835612e-04 7.2401919263003107e-09 0.0000000000000000e+00  -2.1456648518518756e-04 7.2401930159777042e-09 0.0000000000000000e+00  -2.1456648518551575e-04 7.2401920555372097e-09 0.0000000000000000e+00  -2.1456648519116840e-04 -1.9363795254469994e-09 0.0000000000000000e+00  -6.0130174493516677e-04 1.1610432827506047e-08 0.0000000000000000e+00  -6.0130174493256880e-04 1.1610430112880647e-08 0.0