<?xml version="1.0"?>
<VTKFile type="UnstructuredGrid"  version="0.1"  >
<UnstructuredGrid>
<Piece  NumberOfPoints="961" NumberOfCells="1800">
<Points>
<DataArray  type="Float64"  NumberOfComponents="3"  format="ascii">0 0 0  0.03333333333333333 0 0  0.06666666666666667 0 0  0.1 0 0  0.1333333333333333 0 0  0.1666666666666667 0 0  0.2 0 0  0.2333333333333333 0 0  0.2666666666666667 0 0  0.3 0 0  0.3333333333333333 0 0  0.3666666666666666 0 0  0.4 0 0  0.4333333333333333 0 0  0.4666666666666667 0 0  0.5 0 0  0.5333333333333333 0 0  0.5666666666666667 0 0  0.6 0 0  0.6333333333333333 0 0  0.6666666666666666 0 0  0.7 0 0  0.7333333333333333 0 0  0.7666666666666667 0 0  0.8 0 0  0.8333333333333334 0 0  0.8666666666666667 0 0  0.9 0 0  0.9333333333333333 0 0  0.9666666666666667 0 0  1 0 0  0 0.03333333333333333 0  0.03333333333333333 0.03333333333333333 0  0.06666666666666667 0.03333333333333333 0  0.1 0.03333333333333333 0  0.1333333333333333 0.03333333333333333 0  0.1666666666666667 0.03333333333333333 0  0.2 0.03333333333333333 0  0.2333333333333333 0.03333333333333333 0  0.2666666666666667 0.03333333333333333 0  0.3 0.03333333333333333 0  0.3333333333333333 0.03333333333333333 0  0.3666666666666666 0.03333333333333333 0  0.4 0.03333333333333333 0  0.4333333333333333 0.03333333333333333 0  0.4666666666666667 0.03333333333333333 0  0.5 0.03333333333333333 0  0.5333333333333333 0.03333333333333333 0  0.5666666666666667 0.03333333333333333 0  0.6 0.03333333333333333 0  0.6333333333333333 0.03333333333333333 0  0.6666666666666666 0.03333333333333333 0  0.7 0.03333333333333333 0  0.7333333333333333 0.03333333333333333 0  0.7666666666666667 0.03333333333333333 0  0.8 0.03333333333333333 0  0.8333333333333334 0.03333333333333333 0  0.8666666666666667 0.03333333333333333 0  0.9 0.03333333333333333 0  0.9333333333333333 0.03333333333333333 0  0.9666666666666667 0.03333333333333333 0  1 0.03333333333333333 0  0 0.06666666666666667 0  0.03333333333333333 0.06666666666666667 0  0.06666666666666667 0.06666666666666667 0  0.1 0.06666666666666667 0  0.1333333333333333 0.06666666666666667 0  0.1666666666666667 0.06666666666666667 0  0.2 0.06666666666666667 0  0.2333333333333333 0.06666666666666667 0  0.2666666666666667 0.06666666666666667 0  0.3 0.06666666666666667 0  0.3333333333333333 0.06666666666666667 0  0.3666666666666666 0.06666666666666667 0  0.4 0.06666666666666667 0  0.4333333333333333 0.06666666666666667 0  0.4666666666666667 0.06666666666666667 0  0.5 0.06666666666666667 0  0.5333333333333333 0.06666666666666667 0  0.5666666666666667 0.06666666666666667 0  0.6 0.06666666666666667 0  0.6333333333333333 0.06666666666666667 0  0.6666666666666666 0.06666666666666667 0  0.7 0.06666666666666667 0  0.7333333333333333 0.06666666666666667 0  0.7666666666666667 0.06666666666666667 0  0.8 0.06666666666666667 0  0.8333333333333334 0.06666666666666667 0  0.8666666666666667 0.06666666666666667 0  0.9 0.06666666666666667 0  0.9333333333333333 0.06666666666666667 0  0.9666666666666667 0.06666666666666667 0  1 0.06666666666666667 0  0 0.1 0  0.03333333333333333 0.1 0  0.06666666666666667 0.1 0  0.1 0.1 0  0.1333333333333333 0.1 0  0.1666666666666667 0.1 0  0.2 0.1 0  0.2333333333333333 0.1 0  0.2666666666666667 0.1 0  0.3 0.1 0  0.3333333333333333 0.1 0  0.3666666666666666 0.1 0  0.4 0.1 0  0.4333333333333333 0.1 0  0.4666666666666667 0.1 0  0.5 0.1 0  0.5333333333333333 0.1 0  0.5666666666666667 0.1 0  0.6 0.1 0  0.6333333333333333 0.1 0  0.6666666666666666 0.1 0  0.7 0.1 0  0.7333333333333333 0.1 0  0.7666666666666667 0.1 0  0.8 0.1 0  0.8333333333333334 0.1 0  0.8666666666666667 0.1 0  0.9 0.1 0  0.9333333333333333 0.1 0  0.9666666666666667 0.1 0  1 0.1 0  0 0.1333333333333333 0  0.03333333333333333 0.1333333333333333 0  0.06666666666666667 0.1333333333333333 0  0.1 0.1333333333333333 0  0.1333333333333333 0.1333333333333333 0  0.1666666666666667 0.1333333333333333 0  0.2 0.1333333333333333 0  0.2333333333333333 0.1333333333333333 0  0.2666666666666667 0.1333333333333333 0  0.3 0.1333333333333333 0  0.3333333333333333 0.1333333333333333 0  0.3666666666666666 0.1333333333333333 0  0.4 0.1333333333333333 0  0.4333333333333333 0.1333333333333333 0  0.4666666666666667 0.1333333333333333 0  0.5 0.1333333333333333 0  0.5333333333333333 0.1333333333333333 0  0.5666666666666667 0.1333333333333333 0  0.6 0.1333333333333333 0  0.6333333333333333 0.1333333333333333 0  0.6666666666666666 0.1333333333333333 0  0.7 0.1333333333333333 0  0.7333333333333333 0.1333333333333333 0  0.7666666666666667 0.1333333333333333 0  0.8 0.1333333333333333 0  0.8333333333333334 0.1333333333333333 0  0.8666666666666667 0.1333333333333333 0  0.9 0.1333333333333333 0  0.9333333333333333 0.1333333333333333 0  0.9666666666666667 0.1333333333333333 0  1 0.1333333333333333 0  0 0.1666666666666667 0  0.03333333333333333 0.1666666666666667 0  0.06666666666666667 0.1666666666666667 0  0.1 0.1666666666666667 0  0.1333333333333333 0.1666666666666667 0  0.1666666666666667 0.1666666666666667 0  0.2 0.1666666666666667 0  0.2333333333333333 0.1666666666666667 0  0.2666666666666667 0.1666666666666667 0  0.3 0.1666666666666667 0  0.3333333333333333 0.1666666666666667 0  0.3666666666666666 0.1666666666666667 0  0.4 0.1666666666666667 0  0.4333333333333333 0.1666666666666667 0  0.4666666666666667 0.1666666666666667 0  0.5 0.1666666666666667 0  0.5333333333333333 0.1666666666666667 0  0.5666666666666667 0.1666666666666667 0  0.6 0.1666666666666667 0  0.6333333333333333 0.1666666666666667 0  0.6666666666666666 0.1666666666666667 0  0.7 0.1666666666666667 0  0.7333333333333333 0.1666666666666667 0  0.7666666666666667 0.1666666666666667 0  0.8 0.1666666666666667 0  0.8333333333333334 0.1666666666666667 0  0.8666666666666667 0.1666666666666667 0  0.9 0.1666666666666667 0  0.9333333333333333 0.1666666666666667 0  0.9666666666666667 0.1666666666666667 0  1 0.1666666666666667 0  0 0.2 0  0.03333333333333333 0.2 0  0.06666666666666667 0.2 0  0.1 0.2 0  0.1333333333333333 0.2 0  0.1666666666666667 0.2 0  0.2 0.2 0  0.2333333333333333 0.2 0  0.2666666666666667 0.2 0  0.3 0.2 0  0.3333333333333333 0.2 0  0.3666666666666666 0.2 0  0.4 0.2 0  0.4333333333333333 0.2 0  0.4666666666666667 0.2 0  0.5 0.2 0  0.5333333333333333 0.2 0  0.5666666666666667 0.2 0  0.6 0.2 0  0.6333333333333333 0.2 0  0.6666666666666666 0.2 0  0.7 0.2 0  0.7333333333333333 0.2 0  0.7666666666666667 0.2 0  0.8 0.2 0  0.8333333333333334 0.2 0  0.8666666666666667 0.2 0  0.9 0.2 0  0.9333333333333333 0.2 0  0.9666666666666667 0.2 0  1 0.2 0  0 0.2333333333333333 0  0.03333333333333333 0.2333333333333333 0  0.06666666666666667 0.2333333333333333 0  0.1 0.2333333333333333 0  0.1333333333333333 0.2333333333333333 0  0.1666666666666667 0.2333333333333333 0  0.2 0.2333333333333333 0  0.2333333333333333 0.2333333333333333 0  0.2666666666666667 0.2333333333333333 0  0.3 0.2333333333333333 0  0.3333333333333333 0.2333333333333333 0  0.3666666666666666 0.2333333333333333 0  0.4 0.2333333333333333 0  0.4333333333333333 0.2333333333333333 0  0.4666666666666667 0.2333333333333333 0  0.5 0.2333333333333333 0  0.5333333333333333 0.2333333333333333 0  0.5666666666666667 0.2333333333333333 0  0.6 0.2333333333333333 0  0.6333333333333333 0.2333333333333333 0  0.6666666666666666 0.2333333333333333 0  0.7 0.2333333333333333 0  0.7333333333333333 0.2333333333333333 0  0.7666666666666667 0.2333333333333333 0  0.8 0.2333333333333333 0  0.8333333333333334 0.2333333333333333 0  0.8666666666666667 0.2333333333333333 0  0.9 0.2333333333333333 0  0.9333333333333333 0.2333333333333333 0  0.9666666666666667 0.2333333333333333 0  1 0.2333333333333333 0  0 0.2666666666666667 0  0.03333333333333333 0.2666666666666667 0  0.06666666666666667 0.2666666666666667 0  0.1 0.2666666666666667 0  0.1333333333333333 0.2666666666666667 0  0.1666666666666667 0.2666666666666667 0  0.2 0.2666666666666667 0  0.2333333333333333 0.2666666666666667 0  0.2666666666666667 0.2666666666666667 0  0.3 0.2666666666666667 0  0.3333333333333333 0.2666666666666667 0  0.3666666666666666 0.2666666666666667 0  0.4 0.2666666666666667 0  0.4333333333333333 0.2666666666666667 0  0.4666666666666667 0.2666666666666667 0  0.5 0.2666666666666667 0  0.5333333333333333 0.2666666666666667 0  0.5666666666666667 0.2666666666666667 0  0.6 0.2666666666666667 0  0.6333333333333333 0.2666666666666667 0  0.6666666666666666 0.2666666666666667 0  0.7 0.2666666666666667 0  0.7333333333333333 0.2666666666666667 0  0.7666666666666667 0.2666666666666667 0  0.8 0.2666666666666667 0  0.8333333333333334 0.2666666666666667 0  0.8666666666666667 0.2666666666666667 0  0.9 0.2666666666666667 0  0.9333333333333333 0.2666666666666667 0  0.9666666666666667 0.2666666666666667 0  1 0.2666666666666667 0  0 0.3 0  0.03333333333333333 0.3 0  0.06666666666666667 0.3 0  0.1 0.3 0  0.1333333333333333 0.3 0  0.1666666666666667 0.3 0  0.2 0.3 0  0.2333333333333333 0.3 0  0.2666666666666667 0.3 0  0.3 0.3 0  0.3333333333333333 0.3 0  0.3666666666666666 0.3 0  0.4 0.3 0  0.4333333333333333 0.3 0  0.4666666666666667 0.3 0  0.5 0.3 0  0.5333333333333333 0.3 0  0.5666666666666667 0.3 0  0.6 0.3 0  0.6333333333333333 0.3 0  0.6666666666666666 0.3 0  0.7 0.3 0  0.7333333333333333 0.3 0  0.7666666666666667 0.3 0  0.8 0.3 0  0.8333333333333334 0.3 0  0.8666666666666667 0.3 0  0.9 0.3 0  0.9333333333333333 0.3 0  0.9666666666666667 0.3 0  1 0.3 0  0 0.3333333333333333 0  0.03333333333333333 0.3333333333333333 0  0.06666666666666667 0.3333333333333333 0  0.1 0.3333333333333333 0  0.1333333333333333 0.3333333333333333 0  0.1666666666666667 0.3333333333333333 0  0.2 0.3333333333333333 0  0.2333333333333333 0.3333333333333333 0  0.2666666666666667 0.3333333333333333 0  0.3 0.3333333333333333 0  0.3333333333333333 0.3333333333333333 0  0.3666666666666666 0.3333333333333333 0  0.4 0.3333333333333333 0  0.4333333333333333 0.3333333333333333 0  0.4666666666666667 0.3333333333333333 0  0.5 0.3333333333333333 0  0.5333333333333333 0.33333333333333
[...]
<PointData  Vectors="u_f"> 
<DataArray  type="Float64"  Name="u_f"  NumberOfComponents="3" format="ascii">2.7083641411966087e-06 -2.2975875002464313e-09 0.0000000000000000e+00  2.7083641185989622e-06 -2.2975902831223576e-09 0.0000000000000000e+00  2.7083641134662407e-06 -2.2975978101959400e-09 0.0000000000000000e+00  2.7083641101978049e-06 -2.2975998933277841e-09 0.0000000000000000e+00  2.7083641186542566e-06 -2.2975895610979208e-09 0.0000000000000000e+00  2.7083641284636841e-06 -2.2975822760724733e-09 0.0000000000000000e+00  2.7083641079900440e-06 -2.2975776590517319e-09 0.0000000000000000e+00  2.7083641210682869e-06 -2.2975672561318869e-09 0.0000000000000000e+00  2.7083641347697292e-06 -2.2975832290861829e-09 0.0000000000000000e+00  2.7083641121416709e-06 -2.2975922080691047e-09 0.0000000000000000e+00  2.7083641052297737e-06 -2.2975832093537034e-09 0.0000000000000000e+00  2.7083641026975653e-06 -2.2976766067572298e-09 0.0000000000000000e+00  2.7083640663985850e-06 -2.2976025665908707e-09 0.0000000000000000e+00  2.7083641158116411e-06 -2.2975771477419873e-09 0.0000000000000000e+00  2.7083641225472471e-06 -2.2975881094054219e-09 0.0000000000000000e+00  2.7083641292193730e-06 -2.2975489156595169e-09 0.0000000000000000e+00  2.7083641356946621e-06 -2.2975625641385652e-09 0.0000000000000000e+00  2.7083641222053981e-06 -2.2975679573938521e-09 0.0000000000000000e+00  2.7083641283102153e-06 -2.2975938094357135e-09 0.0000000000000000e+00  2.7083641241374464e-06 -2.2975873912299029e-09 0.0000000000000000e+00  2.7083641183449879e-06 -2.2975801936995707e-09 0.0000000000000000e+00  2.7083641271951134e-06 -2.2975927384608075e-09 0.0000000000000000e+00  2.7083641471568475e-06 -2.2974758117017338e-09 0.0000000000000000e+00  2.7083642072972709e-06 -2.2975775870064975e-09 0.0000000000000000e+00  2.7083641037480488e-06 -2.2975932201718327e-09 0.0000000000000000e+00  2.7083641326390551e-06 -2.2975894963710511e-09 0.0000000000000000e+00  2.7083641130578218e-06 -2.2975829364600166e-09 0.0000000000000000e+00  2.7083641296902963e-06 -2.2975711559528912e-09 0.0000000000000000e+00  2.7083641223517112e-06 -2.2975830314361269e-09 0.0000000000000000e+00  2.7083641299314228e-06 -2.2975817930061954e-09 0.0000000000000000e+00  2.7083641411967171e-06 4.8101251269456751e-10 0.0000000000000000e+00  4.1704883441479707e-04 -6.1968587056464991e-09 0.0000000000000000e+00  4.1704883442443422e-04 -6.1969012102747884e-09 0.0000000000000000e+00  4.1704883442399295e-04 -6.1968837017107453e-09 0.0000000000000000e+00  4.1704883441005098e-04 -6.1968894516685469e-09 0.0000000000000000e+00  4.1704883441760949e-04 -6.1968929655677879e-09 0.0000000000000000e+00  4.1704883440906782e-04 -6.1968694252617987e-09 0.0000000000000000e+00  4.1704883442609370e-04 -6.1968720438268857e-09 0.0000000000000000e+00  4.1704883441428403e-04 -6.1968866262376854e-09 0.0000000000000000e+00  4.1704883441372512e-04 -6.1968759682050692e-09 0.0000000000000000e+00  4.1704883441756081e-04 -6.1968779957715520e-09 0.0000000000000000e+00  4.1704883442523057e-04 -6.1968544094953906e-09 0.0000000000000000e+00  4.1704883435669023e-04 -6.1969600411446515e-09 0.0000000000000000e+00  4.1704883438444798e-04 -6.1969071211281923e-09 0.0000000000000000e+00  4.1704883442224012e-04 -6.1968849857313782e-09 0.0000000000000000e+00  4.1704883441041874e-04 -6.1968776528384048e-09 0.0000000000000000e+00  4.1704883442760855e-04 -6.1968874776616514e-09 0.0000000000000000e+00  4.1704883441688189e-04 -6.1968876205594978e-09 0.0000000000000000e+00  4.1704883440341284e-04 -6.1968985865055309e-09 0.0000000000000000e+00  4.1704883440500922e-04 -6.1969006967966395e-09 0.0000000000000000e+00  4.1704883441378844e-04 -6.1968819853102861e-09 0.0000000000000000e+00  4.1704883441089579e-04 -6.1968917063753848e-09 0.0000000000000000e+00  4.1704883441910775e-04 -6.1968893781596396e-09 0.0000000000000000e+00  4.1704883447748358e-04 -6.1968180001432949e-09 0.0000000000000000e+00  4.1704883446049413e-04 -6.1968649182333677e-09 0.0000000000000000e+00  4.1704883442493111e-04 -6.1968964700344700e-09 0.0000000000000000e+00  4.1704883440035138e-04 -6.1968778840987282e-09 0.0000000000000000e+00  4.1704883441941979e-04 -6.1968833608375823e-09 0.0000000000000000e+00  4.1704883440264273e-04 -6.1968906490614262e-09 0.0000000000000000e+00  4.1704883440586054e-04 -6.1968929958170285e-09 0.0000000000000000e+00  4.1704883442505384e-04 -6.1968836314544445e-09 0.0000000000000000e+00  4.1704883441479729e-04 1.6112943464329741e-09 0.0000000000000000e+00  7.5927771939216676e-04 -9.2285666019849624e-09 0.0000000000000000e+00  7.5927771937785821e-04 -9.2285741713424296e-09 0.0000000000000000e+00  7.5927771936788616e-04 -9.2285651040512409e-09 0.0000000000000000e+00  7.5927771939077236e-04 -9.2285676611420647e-09 0.0000000000000000e+00  7.5927771938468479e-04 -9.2285786978864998e-09 0.0000000000000000e+00  7.5927771937610517e-04 -9.2286049411085050e-09 0.0000000000000000e+00  7.5927771935129949e-04 -9.2285706853071844e-09 0.0000000000000000e+00  7.5927771940192132e-04 -9.2285715507173585e-09 0.0000000000000000e+00  7.5927771937594438e-04 -9.2285653839922419e-09 0.0000000000000000e+00  7.5927771937979352e-04 -9.2285668599166593e-09 0.0000000000000000e+00  7.5927771938482465e-04 -9.2285442908389761e-09 0.0000000000000000e+00  7.5927771932417004e-04 -9.2286717141929625e-09 0.0000000000000000e+00  7.5927771933212678e-04 -9.2285691123466726e-09 0.0000000000000000e+00  7.5927771938379596e-04 -9.2285811323540579e-09 0.0000000000000000e+00  7.5927771937620361e-04 -9.2285682274208594e-09 0.0000000000000000e+00  7.5927771937006096e-04 -9.2285816334723020e-09 0.0000000000000000e+00  7.5927771937730711e-04 -9.2285814415685175e-09 0.0000000000000000e+00  7.5927771937650426e-04 -9.2285655406594558e-09 0.0000000000000000e+00  7.5927771937289539e-04 -9.2285667885761563e-09 0.0000000000000000e+00  7.5927771937482809e-04 -9.2285715730519233e-09 0.0000000000000000e+00  7.5927771938028011e-04 -9.2285686089516039e-09 0.0000000000000000e+00  7.5927771936972431e-04 -9.2285623157000937e-09 0.0000000000000000e+00  7.5927771945283372e-04 -9.2284799706535137e-09 0.0000000000000000e+00  7.5927771941312861e-04 -9.2285684186741226e-09 0.0000000000000000e+00  7.5927771938583751e-04 -9.2285626064831164e-09 0.0000000000000000e+00  7.5927771938012084e-04 -9.2285577966370186e-09 0.0000000000000000e+00  7.5927771938907364e-04 -9.2285623507198239e-09 0.0000000000000000e+00  7.5927771936668009e-04 -9.2285671239198883e-09 0.0000000000000000e+00  7.5927771937109767e-04 -9.2285895317767083e-09 0.0000000000000000e+00  7.5927771937533506e-04 -9.2285533695142877e-09 0.0000000000000000e+00  7.5927771939216719e-04 2.5759342287325515e-09 0.0000000000000000e+00  9.7022065919855896e-04 -1.0519470369872025e-08 0.0000000000000000e+00  9.7022065920289034e-04 -1.0519450661244933e-08 0.0000000000000000e+00  9.7022065919938382e-04 -1.0519451503886862e-08 0.0000000000000000e+00  9.7022065920494252e-04 -1.0519447218469355e-08 0.0000000000000000e+00  9.7022065921208286e-04 -1.0519437687464897e-08 0.0000000000000000e+00  9.7022065920863705e-04 -1.0519460778802767e-08 0.0000000000000000e+00  9.7022065920563511e-04 -1.0519477983790201e-08 0.0000000000000000e+00  9.7022065918186463e-04 -1.0519482947701428e-08 0.0000000000000000e+00  9.7022065919550845e-04 -1.0519480279479881e-08 0.0000000000000000e+00  9.7022065920025899e-04 -1.0519470053068150e-08 0.0000000000000000e+00  9.7022065920024554e-04 -1.0519500683947927e-08 0.0000000000000000e+00  9.7022065916622349e-04 -1.0519449348926624e-08 0.0000000000000000e+00  9.7022065921930994e-04 -1.0519475011775206e-08 0.0000000000000000e+00  9.7022065921159714e-04 -1.0519489803111765e-08 0.0000000000000000e+00  9.7022065918784986e-04 -1.0519468045776248e-08 0.0000000000000000e+00  9.7022065921010723e-04 -1.0519469759899883e-08 0.0000000000000000e+00  9.7022065919456215e-04 -1.0519455315291179e-08 0.0000000000000000e+00  9.7022065921807221e-04 -1.0519443554516533e-08 0.0000000000000000e+00  9.7022065918975827e-04 -1.0519480547494658e-08 0.0000000000000000e+00  9.7022065921180184e-04 -1.0519455233325495e-08 0.0000000000000000e+00  9.7022065920427075e-04 -1.0519465367146361e-08 0.0000000000000000e+00  9.7022065919500516e-04 -1.0519473035925167e-08 0.0000000000000000e+00  9.7022065924787606e-04 -1.0519517730858685e-08 0.0000000000000000e+00  9.7022065918590827e-04 -1.0519453372400886e-08 0.0000000000000000e+00  9.7022065920451014e-04 -1.0519483772779281e-08 0.0000000000000000e+00  9.7022065919041378e-04 -1.0519477836121865e-08 0.0000000000000000e+00  9.7022065919863637e-04 -1.0519482826487625e-08 0.0000000000000000e+00  9.7022065920343548e-04 -1.0519473289194795e-08 0.0000000000000000e+00  9.7022065920299985e-04 -1.0519454379191023e-08 0.0000000000000000e+00  9.7022065919864461e-04 -1.0519479266618212e-08 0.0000000000000000e+00  9.7022065919855961e-04 3.1015956456851827e-09 0.0000000000000000e+00  1.0134037629810758e-03 -9.6461264789595574e-09 0.0000000000000000e+00  1.0134037629839247e-03 -9.6461295111477732e-09 0.0000000000000000e+00  1.0134037629652925e-03 -9.6461325198088019e-09 0.0000000000000000e+00  1.0134037629874037e-03 -9.6461267879571766e-09 0.0000000000000000e+00  1.0134037629857722e-03 -9.6461199033818015e-09 0.0000000000000000e+00  1.0134037629941591e-03 -9.6461305381040710e-09 0.0000000000000000e+00  1.0134037629582931e-03 -9.6461376080780176e-09 0.0000000000000000e+00  1.0134037629776005e-03 -9.6461428443408298e-09 0.0000000000000000e+00  1.0134037629805979e-03 -9.6461403299675716e-09 0.0000000000000000e+00  1.0134037629627390e-03 -9.6461353399270727e-09 0.0000000000000000e+00  1.0134037629724183e-03 -9.6461171876721999e-09 0.0000000000000000e+00  1.0134037629936812e-03 -9.6461295101719913e-09 0.0000000000000000e+00  1.0134037629654345e-03 -9.6461276546683933e-09 0.0000000000000000e+00  1.0134037629887702e-03 -9.6461465981740116e-09 0.0000000000000000e+00  1.0134037629713623e-03 -9.6461409219419578e-09 0.0000000000000000e+00  1.0134037629891328e-03 -9.6461423205627603e-09 0.0000000000000000e+00  1.0134037629685047e-03 -9.6461361807258575e-09 0.0000000000000000e+00  1.0134037629803889e-03 -9.6461135091910691e-09 0.0000000000000000e+00  1.0134037629941262e-03 -9.6461191842305005e-09 0.0000000000000000e+00  1.0134037629725180e-03 -9.6461293385427874e-09 0.0000000000000000e+00  1.0134037629759359e-03 -9.6461328194822824e-09 0.0000000000000000e+00  1.0134037629684746e-03 -9.6461189194683300e-09 0.0000000000000000e+00  1.0134037630079753e-03 -9.6461226331860314e-09 0.0000000000000000e+00  1.0134037629679698e-03 -9.6461406702986335e-09 0.0000000000000000e+00  1.0134037629835244e-03 -9.6461493863083184e-09 0.0000000000000000e+00  1.0134037629689451e-03 -9.6461287382200445e-09 0.0000000000000000e+00  1.0134037629774338e-03 -9.6461516628076199e-09 0.0000000000000000e+00  1.0134037629723372e-03 -9.6461577910435595e-09 0.0000000000000000e+00  1.0134037629708512e-03 -9.6461363120227406e-09 0.0000000000000000e+00  1.0134037629684570e-03 -9.6461579311224802e-09 0.0000000000000000e+00  1.0134037629810763e-03 3.0053423813352996e-09 0.0000000000000000e+00  8.8136023622424609e-04 -6.8403847396482712e-09 0.0000000000000000e+00  8.8136023623220478e-04 -6.8403720530733902e-09 0.0000000000000000e+00  8.8136023622258487e-04 -6.8403787119178730e-09 0.0000000000000000e+00  8.8136023622510825e-04 -6.8403669104856457e-09 0.0000000000000000e+00  8.8136023624155657e-04 -6.8403765822195456e-09 0.0000000000000000e+00  8.8136023622490951e-04 -6.8403787599480292e-09 0.0000000000000000e+00  8.8136023623163688e-04 -6.8403581135944788e-09 0.0000000000000000e+00  8.8136023622190324e-04 -6.8403885423789709e-09 0.0000000000000000e+00  8.8136023621930787e-04 -6.8403857022029599e-09 0.0000000000000000e+00  8.8136023623339871e-04 -6.8403750718174991e-09 0.0000000000000000e+00  8.8136023622177454e-04 -6.8403833144645154e-09 0.0000000000000000e+00  8.8136023622225397e-04 -6.8403725529990120e-09 0.0000000000000000e+00  8.8136023622984079e-04 -6.8403766185403184e-09 0.0000000000000000e+00  8.8136023621631905e-04 -6.8403591678726713e-09 0.0000000000000000e+00  8.8136023623611615e-04 -6.8403748056458658e-09 0.0000000000000000e+00  8.8136023622078727e-04 -6.8403702961237697e-09 0.0000000000000000e+00  8.8136023623804570e-04 -6.8403633661203236e-09 0.0000000000000000e+00  8.8136023622536455e-04 -6.8403724949941958e-09 0.0000000000000000e+00  8.8136023623312831e-04 -6.8403764301059808e-09 0.0000000000000000e+00  8.8136023620795942e-04 -6.8403789209520519e-09 0.0000000000000000e+00  8.8136023622950241e-04 -6.8403744624958782e-09 0.0000000000000000e+00  8.8136023623260886e-04 -6.8403728353252577e-09 0.0000000000000000e+00  8.8136023623782550e-04 -6.8403772153936143e-09 0.0000000000000000e+00  8.8136023623234356e-04 -6.8403753494816755e-09 0.0000000000000000e+00  8.8136023622685728e-04 -6.8403638479397691e-09 0.0000000000000000e+00  8.8136023622491331e-04 -6.8403645719699799e-09 0.0000000000000000e+00  8.8136023623506415e-04 -6.8403610794295217e-09 0.0000000000000000e+00  8.8136023622090046e-04 -6.8403595838810449e-09 0.0000000000000000e+00  8.8136023623364016e-04 -6.8403707784853163e-09 0.0000000000000000e+00  8.8136023623003974e-04 -6.8403802569059688e-09 0.0000000000000000e+00  8.8136023622424652e-04 2.2870883276135848e-09 0.0000000000000000e+00  5.9692148575910724e-04 -2.8952650958126436e-09 0.0000000000000000e+00  5.9692148576008107e-04 -2.8952817779435806e-09 0.0000000000000000e+00  5.9692148575407719e-04 -2.8952851060647794e-09 0.0000000000000000e+00  5.9692148575421955e-04 -2.8952828887629165e-09 0.0000000000000000e+00  5.9692148575718549e-04 -2.8952833226606259e-09 0.0000000000000000e+00  5.9692148575528911e-04 -2.8952758199815923e-09 0.0000000000000000e+00  5.9692148574048975e-04 -2.8952843035925414e-09 0.0000000000000000e+00  5.9692148575304829e-04 -2.8952708317842371e-09 0.0000000000000000e+00  5.9692148576187022e-04 -2.8952620408019721e-09 0.0000000000000000e+00  5.9692148575289411e-04 -2.8952754087979184e-09 0.0000000000000000e+00  5.9692148574007732e-04 -2.8952861395805003e-09 0.0000000000000000e+00  5.9692148574689132e-04 -2.8952975170896782e-09 0.0000000000000000e+00  5.9692148574640798e-04 -2.8952990942785785e-09 0.0000000000000000e+00  5.9692148575510914e-04 -2.8953026890593016e-09 0.0000000000000000e+00  5.9692148574368685e-04 -2.8952826282833445e-09 0.0000000000000000e+00  5.9692148577137455e-04 -2.8952718311475896e-09 0.0000000000000000e+00  5.9692148574116760e-04 -2.8952979700693458e-09 0.0000000000000000e+00  5.9692148575162278e-04 -2.8952937382656363e-09 0.0000000000000000e+00  5.9692148574740284e-04 -2.8952697791865580e-09 0.0000000000000000e+00  5.9692148574438204e-04 -2.8952754676700963e-09 0.0000000000000000e+00  5.9692148575216943e-04 -2.8952926393725244e-09 0.0000000000000000e+00  5.9692148574424782e-04 -2.8953006043553643e-09 0.0000000000000000e+00  5.9692148577098500e-04 -2.8952874726612815e-09 0.0000000000000000e+00  5.9692148574418515e-04 -2.8952692581189939e-09 0.0000000000000000e+00  5.9692148576003098e-04 -2.8952578376211999e-09 0.0000000000000000e+00  5.9692148575485088e-04 -2.8952927243739747e-09 0.0000000000000000e+00  5.9692148574504058e-04 -2.8952871007799363e-09 0.0000000000000000e+00  5.9692148573563773e-04 -2.8952865478910385e-09 0.0000000000000000e+00  5.9692148576191034e-04 -2.8952742318964601e-09 0.0000000000000000e+00  5.9692148574052098e-04 -2.8952855914078819e-09 0.0000000000000000e+00  5.9692148575910735e-04 1.1391140192854044e-09 0.0000000000000000e+00  2.0926944008566181e-04 1.1756809574411118e-09 0.0000000000000000e+00  2.0926944008225996e-04 1.1757180676350443e-09 0.0000000000000000e+00  2.0926944008452871e-04 1.1757147372505735e-09 0.0000000000000000e+00  2.0926944007698141e-04 1.1757189563149075e-09 0.0000000000000000e+00  2.0926944008734324e-04 1.1757243375084452e-09 0.0000000000000000e+00  2.0926944008785797e-04 1.1756897427313154e-09 0.0000000000000000e+00  2.0926944007080433e-04 1.1757111394340844e-09 0.0000000000000000e+00  2.0926944008766877e-04 1.1757153662640164e-09 0.0000000000000000e+00  2.0926944008232734e-04 1.1756997488873754e-09 0.0000000000000000e+00  2.0926944008462840e-04 1.1757108031823331e-09 0.0000000000000000e+00  2.0926944007569728e-04 1.1757020264437741e-09 0.0000000000000000e+00  2.0926944005985525e-04 1.1757043289232702e-09 0.0000000000000000e+00  2.0926944009615761e-04 1.1757458087636660e-09 0.0000000000000000e+00  2.0926944008220466e-04 1.1757177120573893e-09 0.0000000000000000e+00  2.0926944008599102e-04 1.1757042923992095e-09 0.0000000000000000e+00  2.0926944007848433e-04 1.1757162986778848e-09 0.0000000000000000e+00  2.0926944009969583e-04 1.1757192044616798e-09 0.0000000000000000e+00  2.0926944007651320e-04 1.1756942893737833e-09 0.0000000000000000e+00  2.0926944006955750e-04 1.1757008781517007e-09 0.0000000000000000e+00  2.0926944008325097e-04 1.1756914784170208e-09 0.0000000000000000e+00  2.0926944007517071e-04 1.1757020913197216e-09 0.0000000000000000e+00  2.0926944009090563e-04 1.1757282382103638e-09 0.0000000000000000e+00  2.0926944009096507e-04 1.1757290111787501e-09 0.0000000000000000e+00  2.0926944007927857e-04 1.1757144836827904e-09 0.0000000000000000e+00  2.0926944008454020e-04 1.1756990477609355e-09 0.0000000000000000e+00  2.0926944008157978e-04 1.1757391788267237e-09 0.0000000000000000e+00  2.0926944009540770e-04 1.1757199791512371e-09 0.0000000000000000e+00  2.0926944008091352e-04 1.1757011349449852e-09 0.0000000000000000e+00  2.0926944005903868e-04 1.1757124023398799e-09 0.0000000000000000e+00  2.0926944008828731e-04 1.1757131653200538e-09 0.0000000000000000e+00  2.0926944008566181e-04 -1.3325696513810839e-10 0.0000000000000000e+00  -2.1456737602364851e-04 4.5328358908155661e-09 0.0000000000000000e+00  -2.1456737603022706e-04 4.5328206157079984e-09 0.0000000000000000e+00  -2.1456737600729765e-04 4.5328328220355270e-09 0.0000000000000000e+00  -2.1456737602639257e-04 4.5328362759241778e-09 0.0000000000000000e+00  -2.1456737599714339e-04 4.5328298217228551e-09 0.0000000000000000e+00  -2.1456737603088024e-04 4.5328549686538336e-09 0.0000000000000000e+00  -2.1456737601586084e-04 4.5328480233631369e-09 0.0000000000000000e+00  -2.1456737601047301e-04 4.5328178702912572e-09 0.0000000000000000e+00  -2.1456737601376557e-04 4.5328093504137454e-09 0.0000000000000000e+00  -2.1456737604774945e-04 4.5328244731909079e-09 0.0000000000000000e+00  -2.1456737600936479e-04 4.5328583021418331e-09 0.0000000000000000e+00  -2.1456737601431553e-04 4.5328204553544971e-09 0.0000000000000000e+00  -2.1456737601957174e-04 4.5328124554061371e-09 0.0000000000000000e+00  -2.1456737602549382e-04 4.5328082227350658e-09 0.0000000000000000e+00  -2.1456737602249573e-04 4.5328113386778994e-09 0.0000000000000000e+00  -2.1456737602629661e-04 4.5328092891563226e-09 0.0000000000000000e+00  -2.1456737602150059e-04 4.5327960625945497e-09 0.0000000000000000e+00  -2.1456737602717650e-04 4.5328042065249582e-09 0.0000000000000000e+00  -2.1456737600955539e-04 4.5328223684834405e-09 0.0000000000000000e+00  -2.1456737602360671e-04 4.5328472001284273e-09 0.0000000000000000e+00  -2.1456737601097608e-04 4.5328381363066855e-09 0.0000000000000000e+00  -2.1456737602139987e-04 4.5328083839017187e-09 0.0000000000000000e+00  -2.1456737602229347e-04 4.5328354717714264e-09 0.0000000000000000e+00  -2.1456737601708442e-04 4.5328298239454695e-09 0.0000000000000000e+00  -2.1456737601189608e-04 4.5328172359787762e-09 0.0000000000000000e+00  -2.1456737601973692e-04 4.5327956739622810e-09 0.0000000000000000e+00  -2.1456737603269503e-04 4.5328350782602479e-09 0.0000000000000000e+00  -2.1456737602095573e-04 4.5328160589146876e-09 0.0000000000000000e+00  -2.1456737602607354e-04 4.5328255395579546e-09 0.0000000000000000e+00  -2.1456737599987759e-04 4.5328315685351853e-09 0.0000000000000000e+00  -2.1456737602364867e-04 -1.2341701187560432e-09 0.0000000000000000e+00  -6.0130365825027284e-04 6.7448112931389401e-09 0.0000000000000000e+00  -6.0130365824262780e-04 6.7448074257897908e-09 0.0