<?xml version="1.0"?>
<VTKFile type="UnstructuredGrid"  version="0.1"  >
<UnstructuredGrid>
<Piece  NumberOfPoints="961" NumberOfCells="1800">
<Points>
<DataArray  type="Float64"  NumberOfComponents="3"  format="ascii">0 0 0  0.03333333333333333 0 0  0.06666666666666667 0 0  0.1 0 0  0.1333333333333333 0 0  0.1666666666666667 0 0  0.2 0 0  0.2333333333333333 0 0  0.2666666666666667 0 0  0.3 0 0  0.3333333333333333 0 0  0.3666666666666666 0 0  0.4 0 0  0.4333333333333333 0 0  0.4666666666666667 0 0  0.5 0 0  0.5333333333333333 0 0  0.5666666666666667 0 0  0.6 0 0  0.6333333333333333 0 0  0.6666666666666666 0 0  0.7 0 0  0.7333333333333333 0 0  0.7666666666666667 0 0  0.8 0 0  0.8333333333333334 0 0  0.8666666666666667 0 0  0.9 0 0  0.9333333333333333 0 0  0.9666666666666667 0 0  1 0 0  0 0.03333333333333333 0  0.03333333333333333 0.03333333333333333 0  0.06666666666666667 0.03333333333333333 0  0.1 0.03333333333333333 0  0.1333333333333333 0.03333333333333333 0  0.1666666666666667 0.03333333333333333 0  0.2 0.03333333333333333 0  0.2333333333333333 0.03333333333333333 0  0.2666666666666667 0.03333333333333333 0  0.3 0.03333333333333333 0  0.3333333333333333 0.03333333333333333 0  0.3666666666666666 0.03333333333333333 0  0.4 0.03333333333333333 0  0.4333333333333333 0.03333333333333333 0  0.4666666666666667 0.03333333333333333 0  0.5 0.03333333333333333 0  0.5333333333333333 0.03333333333333333 0  0.5666666666666667 0.03333333333333333 0  0.6 0.03333333333333333 0  0.6333333333333333 0.03333333333333333 0  0.6666666666666666 0.03333333333333333 0  0.7 0.03333333333333333 0  0.7333333333333333 0.03333333333333333 0  0.7666666666666667 0.03333333333333333 0  0.8 0.03333333333333333 0  0.8333333333333334 0.03333333333333333 0  0.8666666666666667 0.03333333333333333 0  0.9 0.03333333333333333 0  0.9333333333333333 0.03333333333333333 0  0.9666666666666667 0.03333333333333333 0  1 0.03333333333333333 0  0 0.06666666666666667 0  0.03333333333333333 0.06666666666666667 0  0.06666666666666667 0.06666666666666667 0  0.1 0.06666666666666667 0  0.1333333333333333 0.06666666666666667 0  0.1666666666666667 0.06666666666666667 0  0.2 0.06666666666666667 0  0.2333333333333333 0.06666666666666667 0  0.2666666666666667 0.06666666666666667 0  0.3 0.06666666666666667 0  0.3333333333333333 0.06666666666666667 0  0.3666666666666666 0.06666666666666667 0  0.4 0.06666666666666667 0  0.4333333333333333 0.06666666666666667 0  0.4666666666666667 0.06666666666666667 0  0.5 0.06666666666666667 0  0.5333333333333333 0.06666666666666667 0  0.5666666666666667 0.06666666666666667 0  0.6 0.06666666666666667 0  0.6333333333333333 0.06666666666666667 0  0.6666666666666666 0.06666666666666667 0  0.7 0.06666666666666667 0  0.7333333333333333 0.06666666666666667 0  0.7666666666666667 0.06666666666666667 0  0.8 0.06666666666666667 0  0.8333333333333334 0.06666666666666667 0  0.8666666666666667 0.06666666666666667 0  0.9 0.06666666666666667 0  0.9333333333333333 0.06666666666666667 0  0.9666666666666667 0.06666666666666667 0  1 0.06666666666666667 0  0 0.1 0  0.03333333333333333 0.1 0  0.06666666666666667 0.1 0  0.1 0.1 0  0.1333333333333333 0.1 0  0.1666666666666667 0.1 0  0.2 0.1 0  0.2333333333333333 0.1 0  0.2666666666666667 0.1 0  0.3 0.1 0  0.3333333333333333 0.1 0  0.3666666666666666 0.1 0  0.4 0.1 0  0.4333333333333333 0.1 0  0.4666666666666667 0.1 0  0.5 0.1 0  0.5333333333333333 0.1 0  0.5666666666666667 0.1 0  0.6 0.1 0  0.6333333333333333 0.1 0  0.6666666666666666 0.1 0  0.7 0.1 0  0.7333333333333333 0.1 0  0.7666666666666667 0.1 0  0.8 0.1 0  0.8333333333333334 0.1 0  0.8666666666666667 0.1 0  0.9 0.1 0  0.9333333333333333 0.1 0  0.9666666666666667 0.1 0  1 0.1 0  0 0.1333333333333333 0  0.03333333333333333 0.1333333333333333 0  0.06666666666666667 0.1333333333333333 0  0.1 0.1333333333333333 0  0.1333333333333333 0.1333333333333333 0  0.1666666666666667 0.1333333333333333 0  0.2 0.1333333333333333 0  0.2333333333333333 0.1333333333333333 0  0.2666666666666667 0.1333333333333333 0  0.3 0.1333333333333333 0  0.3333333333333333 0.1333333333333333 0  0.3666666666666666 0.1333333333333333 0  0.4 0.1333333333333333 0  0.4333333333333333 0.1333333333333333 0  0.4666666666666667 0.1333333333333333 0  0.5 0.1333333333333333 0  0.5333333333333333 0.1333333333333333 0  0.5666666666666667 0.1333333333333333 0  0.6 0.1333333333333333 0  0.6333333333333333 0.1333333333333333 0  0.6666666666666666 0.1333333333333333 0  0.7 0.1333333333333333 0  0.7333333333333333 0.1333333333333333 0  0.7666666666666667 0.1333333333333333 0  0.8 0.1333333333333333 0  0.8333333333333334 0.1333333333333333 0  0.8666666666666667 0.1333333333333333 0  0.9 0.1333333333333333 0  0.9333333333333333 0.1333333333333333 0  0.9666666666666667 0.1333333333333333 0  1 0.1333333333333333 0  0 0.1666666666666667 0  0.03333333333333333 0.1666666666666667 0  0.06666666666666667 0.1666666666666667 0  0.1 0.1666666666666667 0  0.1333333333333333 0.1666666666666667 0  0.1666666666666667 0.1666666666666667 0  0.2 0.1666666666666667 0  0.2333333333333333 0.1666666666666667 0  0.2666666666666667 0.1666666666666667 0  0.3 0.1666666666666667 0  0.3333333333333333 0.1666666666666667 0  0.3666666666666666 0.1666666666666667 0  0.4 0.1666666666666667 0  0.4333333333333333 0.1666666666666667 0  0.4666666666666667 0.1666666666666667 0  0.5 0.1666666666666667 0  0.5333333333333333 0.1666666666666667 0  0.5666666666666667 0.1666666666666667 0  0.6 0.1666666666666667 0  0.6333333333333333 0.1666666666666667 0  0.6666666666666666 0.1666666666666667 0  0.7 0.1666666666666667 0  0.7333333333333333 0.1666666666666667 0  0.7666666666666667 0.1666666666666667 0  0.8 0.1666666666666667 0  0.8333333333333334 0.1666666666666667 0  0.8666666666666667 0.1666666666666667 0  0.9 0.1666666666666667 0  0.9333333333333333 0.1666666666666667 0  0.9666666666666667 0.1666666666666667 0  1 0.1666666666666667 0  0 0.2 0  0.03333333333333333 0.2 0  0.06666666666666667 0.2 0  0.1 0.2 0  0.1333333333333333 0.2 0  0.1666666666666667 0.2 0  0.2 0.2 0  0.2333333333333333 0.2 0  0.2666666666666667 0.2 0  0.3 0.2 0  0.3333333333333333 0.2 0  0.3666666666666666 0.2 0  0.4 0.2 0  0.4333333333333333 0.2 0  0.4666666666666667 0.2 0  0.5 0.2 0  0.5333333333333333 0.2 0  0.5666666666666667 0.2 0  0.6 0.2 0  0.6333333333333333 0.2 0  0.6666666666666666 0.2 0  0.7 0.2 0  0.7333333333333333 0.2 0  0.7666666666666667 0.2 0  0.8 0.2 0  0.8333333333333334 0.2 0  0.8666666666666667 0.2 0  0.9 0.2 0  0.9333333333333333 0.2 0  0.9666666666666667 0.2 0  1 0.2 0  0 0.2333333333333333 0  0.03333333333333333 0.2333333333333333 0  0.06666666666666667 0.2333333333333333 0  0.1 0.2333333333333333 0  0.1333333333333333 0.2333333333333333 0  0.1666666666666667 0.2333333333333333 0  0.2 0.2333333333333333 0  0.2333333333333333 0.2333333333333333 0  0.2666666666666667 0.2333333333333333 0  0.3 0.2333333333333333 0  0.3333333333333333 0.2333333333333333 0  0.3666666666666666 0.2333333333333333 0  0.4 0.2333333333333333 0  0.4333333333333333 0.2333333333333333 0  0.4666666666666667 0.2333333333333333 0  0.5 0.2333333333333333 0  0.5333333333333333 0.2333333333333333 0  0.5666666666666667 0.2333333333333333 0  0.6 0.2333333333333333 0  0.6333333333333333 0.2333333333333333 0  0.6666666666666666 0.2333333333333333 0  0.7 0.2333333333333333 0  0.7333333333333333 0.2333333333333333 0  0.7666666666666667 0.2333333333333333 0  0.8 0.2333333333333333 0  0.8333333333333334 0.2333333333333333 0  0.8666666666666667 0.2333333333333333 0  0.9 0.2333333333333333 0  0.9333333333333333 0.2333333333333333 0  0.9666666666666667 0.2333333333333333 0  1 0.2333333333333333 0  0 0.2666666666666667 0  0.03333333333333333 0.2666666666666667 0  0.06666666666666667 0.2666666666666667 0  0.1 0.2666666666666667 0  0.1333333333333333 0.2666666666666667 0  0.1666666666666667 0.2666666666666667 0  0.2 0.2666666666666667 0  0.2333333333333333 0.2666666666666667 0  0.2666666666666667 0.2666666666666667 0  0.3 0.2666666666666667 0  0.3333333333333333 0.2666666666666667 0  0.3666666666666666 0.2666666666666667 0  0.4 0.2666666666666667 0  0.4333333333333333 0.2666666666666667 0  0.4666666666666667 0.2666666666666667 0  0.5 0.2666666666666667 0  0.5333333333333333 0.2666666666666667 0  0.5666666666666667 0.2666666666666667 0  0.6 0.2666666666666667 0  0.6333333333333333 0.2666666666666667 0  0.6666666666666666 0.2666666666666667 0  0.7 0.2666666666666667 0  0.7333333333333333 0.2666666666666667 0  0.7666666666666667 0.2666666666666667 0  0.8 0.2666666666666667 0  0.8333333333333334 0.2666666666666667 0  0.8666666666666667 0.2666666666666667 0  0.9 0.2666666666666667 0  0.9333333333333333 0.2666666666666667 0  0.9666666666666667 0.2666666666666667 0  1 0.2666666666666667 0  0 0.3 0  0.03333333333333333 0.3 0  0.06666666666666667 0.3 0  0.1 0.3 0  0.1333333333333333 0.3 0  0.1666666666666667 0.3 0  0.2 0.3 0  0.2333333333333333 0.3 0  0.2666666666666667 0.3 0  0.3 0.3 0  0.3333333333333333 0.3 0  0.3666666666666666 0.3 0  0.4 0.3 0  0.4333333333333333 0.3 0  0.4666666666666667 0.3 0  0.5 0.3 0  0.5333333333333333 0.3 0  0.5666666666666667 0.3 0  0.6 0.3 0  0.6333333333333333 0.3 0  0.6666666666666666 0.3 0  0.7 0.3 0  0.7333333333333333 0.3 0  0.7666666666666667 0.3 0  0.8 0.3 0  0.8333333333333334 0.3 0  0.8666666666666667 0.3 0  0.9 0.3 0  0.9333333333333333 0.3 0  0.9666666666666667 0.3 0  1 0.3 0  0 0.3333333333333333 0  0.03333333333333333 0.3333333333333333 0  0.06666666666666667 0.3333333333333333 0  0.1 0.3333333333333333 0  0.1333333333333333 0.3333333333333333 0  0.1666666666666667 0.3333333333333333 0  0.2 0.3333333333333333 0  0.2333333333333333 0.3333333333333333 0  0.2666666666666667 0.3333333333333333 0  0.3 0.3333333333333333 0  0.3333333333333333 0.3333333333333333 0  0.3666666666666666 0.3333333333333333 0  0.4 0.3333333333333333 0  0.4333333333333333 0.3333333333333333 0  0.4666666666666667 0.3333333333333333 0  0.5 0.3333333333333333 0  0.5333333333333333 0.33333333333333
[...]
<PointData  Vectors="u_f"> 
<DataArray  type="Float64"  Name="u_f"  NumberOfComponents="3" format="ascii">2.7094970931951560e-06 2.7373070417323689e-09 0.0000000000000000e+00  2.7094970925381837e-06 2.7373070848836153e-09 0.0000000000000000e+00  2.7094970952690721e-06 2.7373094388491621e-09 0.0000000000000000e+00  2.7094970999521207e-06 2.7373057687705982e-09 0.0000000000000000e+00  2.7094970954815757e-06 2.7373118841045319e-09 0.0000000000000000e+00  2.7094970942564815e-06 2.7373130748295678e-09 0.0000000000000000e+00  2.7094971007234222e-06 2.7373114823534168e-09 0.0000000000000000e+00  2.7094970978042620e-06 2.7373067697060438e-09 0.0000000000000000e+00  2.7094970956300030e-06 2.7373079404275497e-09 0.0000000000000000e+00  2.7094970968971643e-06 2.7373092445601328e-09 0.0000000000000000e+00  2.7094970967795283e-06 2.7373122855845963e-09 0.0000000000000000e+00  2.7094970930386514e-06 2.7372945891825269e-09 0.0000000000000000e+00  2.7094970943042948e-06 2.7373032408448128e-09 0.0000000000000000e+00  2.7094970960194484e-06 2.7373058385932181e-09 0.0000000000000000e+00  2.7094970964066170e-06 2.7373042942014335e-09 0.0000000000000000e+00  2.7094970943678832e-06 2.7373063172684772e-09 0.0000000000000000e+00  2.7094970961513958e-06 2.7373040389802421e-09 0.0000000000000000e+00  2.7094970957972954e-06 2.7373045590178141e-09 0.0000000000000000e+00  2.7094970937598085e-06 2.7373082412936525e-09 0.0000000000000000e+00  2.7094970992242958e-06 2.7373101840213153e-09 0.0000000000000000e+00  2.7094970942847791e-06 2.7373033468797853e-09 0.0000000000000000e+00  2.7094970972646004e-06 2.7373049738877754e-09 0.0000000000000000e+00  2.7094970964931363e-06 2.7373100188973244e-09 0.0000000000000000e+00  2.7094970985817434e-06 2.7373043701497957e-09 0.0000000000000000e+00  2.7094970996488694e-06 2.7373089288946703e-09 0.0000000000000000e+00  2.7094970968426289e-06 2.7373079000952288e-09 0.0000000000000000e+00  2.7094970969639511e-06 2.7373088246486314e-09 0.0000000000000000e+00  2.7094970939291066e-06 2.7373086935143787e-09 0.0000000000000000e+00  2.7094970965359623e-06 2.7373095279163706e-09 0.0000000000000000e+00  2.7094970953956527e-06 2.7373053031599752e-09 0.0000000000000000e+00  2.7094970931952102e-06 -6.5104879640247279e-10 0.0000000000000000e+00  4.1705312285362822e-04 6.3475500220594450e-09 0.0000000000000000e+00  4.1705312286650432e-04 6.3475519215816512e-09 0.0000000000000000e+00  4.1705312285657389e-04 6.3475471237701975e-09 0.0000000000000000e+00  4.1705312286146137e-04 6.3475515762632592e-09 0.0000000000000000e+00  4.1705312285934869e-04 6.3475483543396632e-09 0.0000000000000000e+00  4.1705312286063033e-04 6.3475476236958192e-09 0.0000000000000000e+00  4.1705312286235356e-04 6.3475516933570938e-09 0.0000000000000000e+00  4.1705312286439045e-04 6.3475459609633675e-09 0.0000000000000000e+00  4.1705312286065581e-04 6.3475491039570453e-09 0.0000000000000000e+00  4.1705312285993199e-04 6.3475488448327261e-09 0.0000000000000000e+00  4.1705312286062859e-04 6.3475542013335592e-09 0.0000000000000000e+00  4.1705312285668741e-04 6.3475437509256591e-09 0.0000000000000000e+00  4.1705312285470809e-04 6.3475475154924424e-09 0.0000000000000000e+00  4.1705312286062068e-04 6.3475542720235409e-09 0.0000000000000000e+00  4.1705312285682228e-04 6.3475504158416740e-09 0.0000000000000000e+00  4.1705312285903362e-04 6.3475491248821472e-09 0.0000000000000000e+00  4.1705312286360906e-04 6.3475511351013952e-09 0.0000000000000000e+00  4.1705312286004768e-04 6.3475521408073304e-09 0.0000000000000000e+00  4.1705312286014016e-04 6.3475565683637422e-09 0.0000000000000000e+00  4.1705312286230531e-04 6.3475485872262899e-09 0.0000000000000000e+00  4.1705312285761093e-04 6.3475506015655062e-09 0.0000000000000000e+00  4.1705312286150441e-04 6.3475506154432940e-09 0.0000000000000000e+00  4.1705312286878418e-04 6.3475692336882605e-09 0.0000000000000000e+00  4.1705312286651852e-04 6.3475546586500356e-09 0.0000000000000000e+00  4.1705312286024901e-04 6.3475488851650469e-09 0.0000000000000000e+00  4.1705312286301481e-04 6.3475520821519929e-09 0.0000000000000000e+00  4.1705312286007825e-04 6.3475525623451351e-09 0.0000000000000000e+00  4.1705312286014862e-04 6.3475527282280675e-09 0.0000000000000000e+00  4.1705312286287560e-04 6.3475500065553539e-09 0.0000000000000000e+00  4.1705312286216686e-04 6.3475484420516190e-09 0.0000000000000000e+00  4.1705312285362844e-04 -1.4581603675369275e-09 0.0000000000000000e+00  7.5928447775636240e-04 8.8588440310668690e-09 0.0000000000000000e+00  7.5928447775072954e-04 8.8588469005163387e-09 0.0000000000000000e+00  7.5928447775887840e-04 8.8588457995090325e-09 0.0000000000000000e+00  7.5928447775306578e-04 8.8588470613035208e-09 0.0000000000000000e+00  7.5928447775312302e-04 8.8588440365963000e-09 0.0000000000000000e+00  7.5928447775176137e-04 8.8588402139162803e-09 0.0000000000000000e+00  7.5928447775615976e-04 8.8588481367236557e-09 0.0000000000000000e+00  7.5928447775682655e-04 8.8588483195201420e-09 0.0000000000000000e+00  7.5928447776096386e-04 8.8588466344531255e-09 0.0000000000000000e+00  7.5928447775244594e-04 8.8588399858001432e-09 0.0000000000000000e+00  7.5928447774889995e-04 8.8588468268990112e-09 0.0000000000000000e+00  7.5928447774799930e-04 8.8588344500806909e-09 0.0000000000000000e+00  7.5928447775323892e-04 8.8588414598814169e-09 0.0000000000000000e+00  7.5928447775379046e-04 8.8588355389449328e-09 0.0000000000000000e+00  7.5928447775429938e-04 8.8588429580319789e-09 0.0000000000000000e+00  7.5928447775026604e-04 8.8588434425619297e-09 0.0000000000000000e+00  7.5928447775448554e-04 8.8588398150383010e-09 0.0000000000000000e+00  7.5928447775373820e-04 8.8588384205374668e-09 0.0000000000000000e+00  7.5928447775492301e-04 8.8588385411007484e-09 0.0000000000000000e+00  7.5928447774931227e-04 8.8588389739142556e-09 0.0000000000000000e+00  7.5928447775285902e-04 8.8588471489070564e-09 0.0000000000000000e+00  7.5928447775829543e-04 8.8588445138620964e-09 0.0000000000000000e+00  7.5928447775550740e-04 8.8588502663135629e-09 0.0000000000000000e+00  7.5928447776410979e-04 8.8588465952050069e-09 0.0000000000000000e+00  7.5928447775560595e-04 8.8588454252424426e-09 0.0000000000000000e+00  7.5928447775366881e-04 8.8588372569716953e-09 0.0000000000000000e+00  7.5928447775244518e-04 8.8588381634731317e-09 0.0000000000000000e+00  7.5928447775258201e-04 8.8588376900020430e-09 0.0000000000000000e+00  7.5928447775262255e-04 8.8588380426930097e-09 0.0000000000000000e+00  7.5928447775058881e-04 8.8588416810586601e-09 0.0000000000000000e+00  7.5928447775636284e-04 -2.0106072207349284e-09 0.0000000000000000e+00  9.7022866461433585e-04 9.8684891283035148e-09 0.0000000000000000e+00  9.7022866461917139e-04 9.8684829941044633e-09 0.0000000000000000e+00  9.7022866461009185e-04 9.8684928514537751e-09 0.0000000000000000e+00  9.7022866461691387e-04 9.8684896884023571e-09 0.0000000000000000e+00  9.7022866461380134e-04 9.8684929932674192e-09 0.0000000000000000e+00  9.7022866461775868e-04 9.8684859639510542e-09 0.0000000000000000e+00  9.7022866461237952e-04 9.8684869338783177e-09 0.0000000000000000e+00  9.7022866461713418e-04 9.8684864423010527e-09 0.0000000000000000e+00  9.7022866461207269e-04 9.8684800160179359e-09 0.0000000000000000e+00  9.7022866461167890e-04 9.8684888407730986e-09 0.0000000000000000e+00  9.7022866461706045e-04 9.8684838937754260e-09 0.0000000000000000e+00  9.7022866460762919e-04 9.8684913218613501e-09 0.0000000000000000e+00  9.7022866462209830e-04 9.8684902413454650e-09 0.0000000000000000e+00  9.7022866461053659e-04 9.8684848825678073e-09 0.0000000000000000e+00  9.7022866461231186e-04 9.8684847633055683e-09 0.0000000000000000e+00  9.7022866461980760e-04 9.8684808098707666e-09 0.0000000000000000e+00  9.7022866461030414e-04 9.8684868152666000e-09 0.0000000000000000e+00  9.7022866461649341e-04 9.8684885497732355e-09 0.0000000000000000e+00  9.7022866461503061e-04 9.8684863241230159e-09 0.0000000000000000e+00  9.7022866461384362e-04 9.8684871849795408e-09 0.0000000000000000e+00  9.7022866461443321e-04 9.8684851625088083e-09 0.0000000000000000e+00  9.7022866461426885e-04 9.8684856549534350e-09 0.0000000000000000e+00  9.7022866461687245e-04 9.8684861027289322e-09 0.0000000000000000e+00  9.7022866461500329e-04 9.8684903983379396e-09 0.0000000000000000e+00  9.7022866461751018e-04 9.8684863464575806e-09 0.0000000000000000e+00  9.7022866461220951e-04 9.8684841234094461e-09 0.0000000000000000e+00  9.7022866461348996e-04 9.8684871229631765e-09 0.0000000000000000e+00  9.7022866461312393e-04 9.8684885337270434e-09 0.0000000000000000e+00  9.7022866461566400e-04 9.8684856909489471e-09 0.0000000000000000e+00  9.7022866460960418e-04 9.8684840418774428e-09 0.0000000000000000e+00  9.7022866461433650e-04 -2.2242405670281022e-09 0.0000000000000000e+00  1.0134115178457082e-03 9.2079103949883542e-09 0.0000000000000000e+00  1.0134115178432202e-03 9.2079089674193537e-09 0.0000000000000000e+00  1.0134115178400561e-03 9.2079073195404718e-09 0.0000000000000000e+00  1.0134115178432180e-03 9.2079084101394371e-09 0.0000000000000000e+00  1.0134115178466025e-03 9.2079110079962626e-09 0.0000000000000000e+00  1.0134115178424066e-03 9.2079124787165095e-09 0.0000000000000000e+00  1.0134115178467777e-03 9.2079154389137011e-09 0.0000000000000000e+00  1.0134115178453821e-03 9.2079155680421798e-09 0.0000000000000000e+00  1.0134115178468258e-03 9.2079131915794379e-09 0.0000000000000000e+00  1.0134115178429314e-03 9.2079118096553489e-09 0.0000000000000000e+00  1.0134115178475080e-03 9.2079156790644823e-09 0.0000000000000000e+00  1.0134115178416375e-03 9.2079140589411759e-09 0.0000000000000000e+00  1.0134115178454283e-03 9.2079102834239507e-09 0.0000000000000000e+00  1.0134115178435646e-03 9.2079136277539719e-09 0.0000000000000000e+00  1.0134115178443625e-03 9.2079137312952794e-09 0.0000000000000000e+00  1.0134115178470175e-03 9.2079160598362852e-09 0.0000000000000000e+00  1.0134115178458865e-03 9.2079108254166167e-09 0.0000000000000000e+00  1.0134115178454411e-03 9.2079103985662214e-09 0.0000000000000000e+00  1.0134115178466450e-03 9.2079132123961197e-09 0.0000000000000000e+00  1.0134115178469156e-03 9.2079121467338043e-09 0.0000000000000000e+00  1.0134115178467376e-03 9.2079137910348191e-09 0.0000000000000000e+00  1.0134115178479068e-03 9.2079135872048107e-09 0.0000000000000000e+00  1.0134115178433468e-03 9.2079087924291231e-09 0.0000000000000000e+00  1.0134115178482526e-03 9.2079126619466767e-09 0.0000000000000000e+00  1.0134115178450868e-03 9.2079138319092410e-09 0.0000000000000000e+00  1.0134115178458635e-03 9.2079131009401363e-09 0.0000000000000000e+00  1.0134115178450321e-03 9.2079153392755214e-09 0.0000000000000000e+00  1.0134115178467534e-03 9.2079124346979013e-09 0.0000000000000000e+00  1.0134115178467521e-03 9.2079130536689216e-09 0.0000000000000000e+00  1.0134115178435043e-03 9.2079110188382843e-09 0.0000000000000000e+00  1.0134115178457085e-03 -2.0657605511943300e-09 0.0000000000000000e+00  8.8136631754292508e-04 6.9678286642024453e-09 0.0000000000000000e+00  8.8136631754163087e-04 6.9678218089005289e-09 0.0000000000000000e+00  8.8136631753892936e-04 6.9678221431600587e-09 0.0000000000000000e+00  8.8136631754343606e-04 6.9678228994994942e-09 0.0000000000000000e+00  8.8136631753858144e-04 6.9678243659913527e-09 0.0000000000000000e+00  8.8136631754390563e-04 6.9678317683816854e-09 0.0000000000000000e+00  8.8136631754226675e-04 6.9678234412753198e-09 0.0000000000000000e+00  8.8136631753949737e-04 6.9678226580476704e-09 0.0000000000000000e+00  8.8136631754137532e-04 6.9678193631572682e-09 0.0000000000000000e+00  8.8136631753840883e-04 6.9678179012190589e-09 0.0000000000000000e+00  8.8136631753930254e-04 6.9678317994982877e-09 0.0000000000000000e+00  8.8136631754233907e-04 6.9678206258191183e-09 0.0000000000000000e+00  8.8136631754510107e-04 6.9678277465337266e-09 0.0000000000000000e+00  8.8136631754116162e-04 6.9678276610985954e-09 0.0000000000000000e+00  8.8136631754097883e-04 6.9678292825229443e-09 0.0000000000000000e+00  8.8136631754236747e-04 6.9678278833600407e-09 0.0000000000000000e+00  8.8136631754313184e-04 6.9678280863226874e-09 0.0000000000000000e+00  8.8136631754130235e-04 6.9678297439593889e-09 0.0000000000000000e+00  8.8136631754048183e-04 6.9678272288271892e-09 0.0000000000000000e+00  8.8136631754076275e-04 6.9678291717174823e-09 0.0000000000000000e+00  8.8136631754264590e-04 6.9678219589541096e-09 0.0000000000000000e+00  8.8136631753849286e-04 6.9678248429318884e-09 0.0000000000000000e+00  8.8136631754506302e-04 6.9678350975328762e-09 0.0000000000000000e+00  8.8136631754406089e-04 6.9678251614704867e-09 0.0000000000000000e+00  8.8136631754048725e-04 6.9678244257308924e-09 0.0000000000000000e+00  8.8136631754070019e-04 6.9678257462891385e-09 0.0000000000000000e+00  8.8136631754221297e-04 6.9678279063451268e-09 0.0000000000000000e+00  8.8136631754332862e-04 6.9678217298621906e-09 0.0000000000000000e+00  8.8136631753913536e-04 6.9678221188739300e-09 0.0000000000000000e+00  8.8136631753792528e-04 6.9678217510041329e-09 0.0000000000000000e+00  8.8136631754292551e-04 -1.5560618553649680e-09 0.0000000000000000e+00  5.9692486133942598e-04 3.4980820964479117e-09 0.0000000000000000e+00  5.9692486133738638e-04 3.4980854593720002e-09 0.0000000000000000e+00  5.9692486134435693e-04 3.4980837034523718e-09 0.0000000000000000e+00  5.9692486133518089e-04 3.4980837190106730e-09 0.0000000000000000e+00  5.9692486134206644e-04 3.4980880232390876e-09 0.0000000000000000e+00  5.9692486133660749e-04 3.4980821790641173e-09 0.0000000000000000e+00  5.9692486134301209e-04 3.4980863307452863e-09 0.0000000000000000e+00  5.9692486133852013e-04 3.4980849532122160e-09 0.0000000000000000e+00  5.9692486133630261e-04 3.4980855853562927e-09 0.0000000000000000e+00  5.9692486133846429e-04 3.4980859530634595e-09 0.0000000000000000e+00  5.9692486133976013e-04 3.4980899486195156e-09 0.0000000000000000e+00  5.9692486134095481e-04 3.4980815348311864e-09 0.0000000000000000e+00  5.9692486133992677e-04 3.4980836045731337e-09 0.0000000000000000e+00  5.9692486133703987e-04 3.4980811188770229e-09 0.0000000000000000e+00  5.9692486133847210e-04 3.4980795797978290e-09 0.0000000000000000e+00  5.9692486134031004e-04 3.4980833073391081e-09 0.0000000000000000e+00  5.9692486134104241e-04 3.4980831335957099e-09 0.0000000000000000e+00  5.9692486133901398e-04 3.4980806721315177e-09 0.0000000000000000e+00  5.9692486133906928e-04 3.4980807735586310e-09 0.0000000000000000e+00  5.9692486133845518e-04 3.4980806570068974e-09 0.0000000000000000e+00  5.9692486133548111e-04 3.4980842622501715e-09 0.0000000000000000e+00  5.9692486133911958e-04 3.4980922934777642e-09 0.0000000000000000e+00  5.9692486134286247e-04 3.4980818578150136e-09 0.0000000000000000e+00  5.9692486134176590e-04 3.4980858276754782e-09 0.0000000000000000e+00  5.9692486133805674e-04 3.4980835707460259e-09 0.0000000000000000e+00  5.9692486133592834e-04 3.4980834292034323e-09 0.0000000000000000e+00  5.9692486134198806e-04 3.4980820326968240e-09 0.0000000000000000e+00  5.9692486133285354e-04 3.4980851396407796e-09 0.0000000000000000e+00  5.9692486134135336e-04 3.4980847532853354e-09 0.0000000000000000e+00  5.9692486133748634e-04 3.4980904398715200e-09 0.0000000000000000e+00  5.9692486133942619e-04 -7.7097163672064033e-10 0.0000000000000000e+00  2.0926965044891984e-04 -6.2798180925380340e-10 0.0000000000000000e+00  2.0926965045438609e-04 -6.2798384221419198e-10 0.0000000000000000e+00  2.0926965045538082e-04 -6.2798322987035748e-10 0.0000000000000000e+00  2.0926965044989863e-04 -6.2798207411084161e-10 0.0000000000000000e+00  2.0926965045879055e-04 -6.2798479842629800e-10 0.0000000000000000e+00  2.0926965045140470e-04 -6.2798348772073916e-10 0.0000000000000000e+00  2.0926965045189820e-04 -6.2798803009416100e-10 0.0000000000000000e+00  2.0926965045495963e-04 -6.2798660110214514e-10 0.0000000000000000e+00  2.0926965045113603e-04 -6.2797963344977861e-10 0.0000000000000000e+00  2.0926965045977238e-04 -6.2797977980351936e-10 0.0000000000000000e+00  2.0926965045712923e-04 -6.2799045602362699e-10 0.0000000000000000e+00  2.0926965045074567e-04 -6.2798004410490396e-10 0.0000000000000000e+00  2.0926965044806319e-04 -6.2797724848960221e-10 0.0000000000000000e+00  2.0926965045853821e-04 -6.2797895197450309e-10 0.0000000000000000e+00  2.0926965045492158e-04 -6.2798183295717340e-10 0.0000000000000000e+00  2.0926965045813965e-04 -6.2798387487578242e-10 0.0000000000000000e+00  2.0926965045284891e-04 -6.2798425936097784e-10 0.0000000000000000e+00  2.0926965045333019e-04 -6.2798574895989515e-10 0.0000000000000000e+00  2.0926965045571193e-04 -6.2798341469972284e-10 0.0000000000000000e+00  2.0926965045477456e-04 -6.2798302914387778e-10 0.0000000000000000e+00  2.0926965045135862e-04 -6.2798406451629492e-10 0.0000000000000000e+00  2.0926965045784697e-04 -6.2798895123232674e-10 0.0000000000000000e+00  2.0926965045174980e-04 -6.2798428376907925e-10 0.0000000000000000e+00  2.0926965045046857e-04 -6.2799016456297797e-10 0.0000000000000000e+00  2.0926965045392953e-04 -6.2798600851789524e-10 0.0000000000000000e+00  2.0926965045348696e-04 -6.2797998725205254e-10 0.0000000000000000e+00  2.0926965045720496e-04 -6.2798555511809923e-10 0.0000000000000000e+00  2.0926965045114498e-04 -6.2798429072152568e-10 0.0000000000000000e+00  2.0926965045432234e-04 -6.2798012639584885e-10 0.0000000000000000e+00  2.0926965045483885e-04 -6.2799304362118943e-10 0.0000000000000000e+00  2.0926965044891987e-04 1.6376567548820708e-10 0.0000000000000000e+00  -2.1457020452917563e-04 -4.6951083437773988e-09 0.0000000000000000e+00  -2.1457020452132704e-04 -4.6951083527762769e-09 0.0000000000000000e+00  -2.1457020452814797e-04 -4.6951064094523029e-09 0.0000000000000000e+00  -2.1457020452044526e-04 -4.6951137709140035e-09 0.0000000000000000e+00  -2.1457020452560319e-04 -4.6951072664599101e-09 0.0000000000000000e+00  -2.1457020452111139e-04 -4.6951077669818431e-09 0.0000000000000000e+00  -2.1457020452918637e-04 -4.6951149216319793e-09 0.0000000000000000e+00  -2.1457020452765097e-04 -4.6951072626652025e-09 0.0000000000000000e+00  -2.1457020452650340e-04 -4.6951076794867277e-09 0.0000000000000000e+00  -2.1457020452445209e-04 -4.6951132506595911e-09 0.0000000000000000e+00  -2.1457020452456208e-04 -4.6951081557225320e-09 0.0000000000000000e+00  -2.1457020452267866e-04 -4.6951071398793065e-09 0.0000000000000000e+00  -2.1457020452279115e-04 -4.6951153172031419e-09 0.0000000000000000e+00  -2.1457020452993452e-04 -4.6951111713224546e-09 0.0000000000000000e+00  -2.1457020452240251e-04 -4.6951111838991998e-09 0.0000000000000000e+00  -2.1457020452409625e-04 -4.6951081841828390e-09 0.0000000000000000e+00  -2.1457020452535978e-04 -4.6951074681215142e-09 0.0000000000000000e+00  -2.1457020452550745e-04 -4.6951069507402375e-09 0.0000000000000000e+00  -2.1457020452390240e-04 -4.6951077613982019e-09 0.0000000000000000e+00  -2.1457020452664776e-04 -4.6951070722793010e-09 0.0000000000000000e+00  -2.1457020452321073e-04 -4.6951081870559748e-09 0.0000000000000000e+00  -2.1457020452586665e-04 -4.6951116344394125e-09 0.0000000000000000e+00  -2.1457020452407094e-04 -4.6951078588679772e-09 0.0000000000000000e+00  -2.1457020452438514e-04 -4.6951140710211649e-09 0.0000000000000000e+00  -2.1457020453072366e-04 -4.6951058449624418e-09 0.0000000000000000e+00  -2.1457020452177465e-04 -4.6951093436828524e-09 0.0000000000000000e+00  -2.1457020452449145e-04 -4.6951060130137785e-09 0.0000000000000000e+00  -2.1457020452622986e-04 -4.6951048382807246e-09 0.0000000000000000e+00  -2.1457020452248876e-04 -4.6951077673071037e-09 0.0000000000000000e+00  -2.1457020452608707e-04 -4.6951161995810800e-09 0.0000000000000000e+00  -2.1457020452917580e-04 1.0875673097680253e-09 0.0000000000000000e+00  -6.0130892770299542e-04 -7.9709629229127860e-09 0.0000000000000000e+00  -6.0130892770057722e-04 -7.9709595753301582e-09 0.0000000000000000e+00  -6.0130892770072716e-04 -7.9709650580321242e-09 0.0000000000000000e+00  -6.0130892770225730e-04 -7.9709667484117314e-09 0.