<?xml version="1.0"?>
<VTKFile type="UnstructuredGrid"  version="0.1"  >
<UnstructuredGrid>
<Piece  NumberOfPoints="961" NumberOfCells="1800">
<Points>
<DataArray  type="Float64"  NumberOfComponents="3"  format="ascii">0 0 0  0.03333333333333333 0 0  0.06666666666666667 0 0  0.1 0 0  0.1333333333333333 0 0  0.1666666666666667 0 0  0.2 0 0  0.2333333333333333 0 0  0.2666666666666667 0 0  0.3 0 0  0.3333333333333333 0 0  0.3666666666666666 0 0  0.4 0 0  0.4333333333333333 0 0  0.4666666666666667 0 0  0.5 0 0  0.5333333333333333 0 0  0.5666666666666667 0 0  0.6 0 0  0.6333333333333333 0 0  0.6666666666666666 0 0  0.7 0 0  0.7333333333333333 0 0  0.7666666666666667 0 0  0.8 0 0  0.8333333333333334 0 0  0.8666666666666667 0 0  0.9 0 0  0.9333333333333333 0 0  0.9666666666666667 0 0  1 0 0  0 0.03333333333333333 0  0.03333333333333333 0.03333333333333333 0  0.06666666666666667 0.03333333333333333 0  0.1 0.03333333333333333 0  0.1333333333333333 0.03333333333333333 0  0.1666666666666667 0.03333333333333333 0  0.2 0.03333333333333333 0  0.2333333333333333 0.03333333333333333 0  0.2666666666666667 0.03333333333333333 0  0.3 0.03333333333333333 0  0.3333333333333333 0.03333333333333333 0  0.3666666666666666 0.03333333333333333 0  0.4 0.03333333333333333 0  0.4333333333333333 0.03333333333333333 0  0.4666666666666667 0.03333333333333333 0  0.5 0.03333333333333333 0  0.5333333333333333 0.03333333333333333 0  0.5666666666666667 0.03333333333333333 0  0.6 0.03333333333333333 0  0.6333333333333333 0.03333333333333333 0  0.6666666666666666 0.03333333333333333 0  0.7 0.03333333333333333 0  0.7333333333333333 0.03333333333333333 0  0.7666666666666667 0.03333333333333333 0  0.8 0.03333333333333333 0  0.8333333333333334 0.03333333333333333 0  0.8666666666666667 0.03333333333333333 0  0.9 0.03333333333333333 0  0.9333333333333333 0.03333333333333333 0  0.9666666666666667 0.03333333333333333 0  1 0.03333333333333333 0  0 0.06666666666666667 0  0.03333333333333333 0.06666666666666667 0  0.06666666666666667 0.06666666666666667 0  0.1 0.06666666666666667 0  0.1333333333333333 0.06666666666666667 0  0.1666666666666667 0.06666666666666667 0  0.2 0.06666666666666667 0  0.2333333333333333 0.06666666666666667 0  0.2666666666666667 0.06666666666666667 0  0.3 0.06666666666666667 0  0.3333333333333333 0.06666666666666667 0  0.3666666666666666 0.06666666666666667 0  0.4 0.06666666666666667 0  0.4333333333333333 0.06666666666666667 0  0.4666666666666667 0.06666666666666667 0  0.5 0.06666666666666667 0  0.5333333333333333 0.06666666666666667 0  0.5666666666666667 0.06666666666666667 0  0.6 0.06666666666666667 0  0.6333333333333333 0.06666666666666667 0  0.6666666666666666 0.06666666666666667 0  0.7 0.06666666666666667 0  0.7333333333333333 0.06666666666666667 0  0.7666666666666667 0.06666666666666667 0  0.8 0.06666666666666667 0  0.8333333333333334 0.06666666666666667 0  0.8666666666666667 0.06666666666666667 0  0.9 0.06666666666666667 0  0.9333333333333333 0.06666666666666667 0  0.9666666666666667 0.06666666666666667 0  1 0.06666666666666667 0  0 0.1 0  0.03333333333333333 0.1 0  0.06666666666666667 0.1 0  0.1 0.1 0  0.1333333333333333 0.1 0  0.1666666666666667 0.1 0  0.2 0.1 0  0.2333333333333333 0.1 0  0.2666666666666667 0.1 0  0.3 0.1 0  0.3333333333333333 0.1 0  0.3666666666666666 0.1 0  0.4 0.1 0  0.4333333333333333 0.1 0  0.4666666666666667 0.1 0  0.5 0.1 0  0.5333333333333333 0.1 0  0.5666666666666667 0.1 0  0.6 0.1 0  0.6333333333333333 0.1 0  0.6666666666666666 0.1 0  0.7 0.1 0  0.7333333333333333 0.1 0  0.7666666666666667 0.1 0  0.8 0.1 0  0.8333333333333334 0.1 0  0.8666666666666667 0.1 0  0.9 0.1 0  0.9333333333333333 0.1 0  0.9666666666666667 0.1 0  1 0.1 0  0 0.1333333333333333 0  0.03333333333333333 0.1333333333333333 0  0.06666666666666667 0.1333333333333333 0  0.1 0.1333333333333333 0  0.1333333333333333 0.1333333333333333 0  0.1666666666666667 0.1333333333333333 0  0.2 0.1333333333333333 0  0.2333333333333333 0.1333333333333333 0  0.2666666666666667 0.1333333333333333 0  0.3 0.1333333333333333 0  0.3333333333333333 0.1333333333333333 0  0.3666666666666666 0.1333333333333333 0  0.4 0.1333333333333333 0  0.4333333333333333 0.1333333333333333 0  0.4666666666666667 0.1333333333333333 0  0.5 0.1333333333333333 0  0.5333333333333333 0.1333333333333333 0  0.5666666666666667 0.1333333333333333 0  0.6 0.1333333333333333 0  0.6333333333333333 0.1333333333333333 0  0.6666666666666666 0.1333333333333333 0  0.7 0.1333333333333333 0  0.7333333333333333 0.1333333333333333 0  0.7666666666666667 0.1333333333333333 0  0.8 0.1333333333333333 0  0.8333333333333334 0.1333333333333333 0  0.8666666666666667 0.1333333333333333 0  0.9 0.1333333333333333 0  0.9333333333333333 0.1333333333333333 0  0.9666666666666667 0.1333333333333333 0  1 0.1333333333333333 0  0 0.1666666666666667 0  0.03333333333333333 0.1666666666666667 0  0.06666666666666667 0.1666666666666667 0  0.1 0.1666666666666667 0  0.1333333333333333 0.1666666666666667 0  0.1666666666666667 0.1666666666666667 0  0.2 0.1666666666666667 0  0.2333333333333333 0.1666666666666667 0  0.2666666666666667 0.1666666666666667 0  0.3 0.1666666666666667 0  0.3333333333333333 0.1666666666666667 0  0.3666666666666666 0.1666666666666667 0  0.4 0.1666666666666667 0  0.4333333333333333 0.1666666666666667 0  0.4666666666666667 0.1666666666666667 0  0.5 0.1666666666666667 0  0.5333333333333333 0.1666666666666667 0  0.5666666666666667 0.1666666666666667 0  0.6 0.1666666666666667 0  0.6333333333333333 0.1666666666666667 0  0.6666666666666666 0.1666666666666667 0  0.7 0.1666666666666667 0  0.7333333333333333 0.1666666666666667 0  0.7666666666666667 0.1666666666666667 0  0.8 0.1666666666666667 0  0.8333333333333334 0.1666666666666667 0  0.8666666666666667 0.1666666666666667 0  0.9 0.1666666666666667 0  0.9333333333333333 0.1666666666666667 0  0.9666666666666667 0.1666666666666667 0  1 0.1666666666666667 0  0 0.2 0  0.03333333333333333 0.2 0  0.06666666666666667 0.2 0  0.1 0.2 0  0.1333333333333333 0.2 0  0.1666666666666667 0.2 0  0.2 0.2 0  0.2333333333333333 0.2 0  0.2666666666666667 0.2 0  0.3 0.2 0  0.3333333333333333 0.2 0  0.3666666666666666 0.2 0  0.4 0.2 0  0.4333333333333333 0.2 0  0.4666666666666667 0.2 0  0.5 0.2 0  0.5333333333333333 0.2 0  0.5666666666666667 0.2 0  0.6 0.2 0  0.6333333333333333 0.2 0  0.6666666666666666 0.2 0  0.7 0.2 0  0.7333333333333333 0.2 0  0.7666666666666667 0.2 0  0.8 0.2 0  0.8333333333333334 0.2 0  0.8666666666666667 0.2 0  0.9 0.2 0  0.9333333333333333 0.2 0  0.9666666666666667 0.2 0  1 0.2 0  0 0.2333333333333333 0  0.03333333333333333 0.2333333333333333 0  0.06666666666666667 0.2333333333333333 0  0.1 0.2333333333333333 0  0.1333333333333333 0.2333333333333333 0  0.1666666666666667 0.2333333333333333 0  0.2 0.2333333333333333 0  0.2333333333333333 0.2333333333333333 0  0.2666666666666667 0.2333333333333333 0  0.3 0.2333333333333333 0  0.3333333333333333 0.2333333333333333 0  0.3666666666666666 0.2333333333333333 0  0.4 0.2333333333333333 0  0.4333333333333333 0.2333333333333333 0  0.4666666666666667 0.2333333333333333 0  0.5 0.2333333333333333 0  0.5333333333333333 0.2333333333333333 0  0.5666666666666667 0.2333333333333333 0  0.6 0.2333333333333333 0  0.6333333333333333 0.2333333333333333 0  0.6666666666666666 0.2333333333333333 0  0.7 0.2333333333333333 0  0.7333333333333333 0.2333333333333333 0  0.7666666666666667 0.2333333333333333 0  0.8 0.2333333333333333 0  0.8333333333333334 0.2333333333333333 0  0.8666666666666667 0.2333333333333333 0  0.9 0.2333333333333333 0  0.9333333333333333 0.2333333333333333 0  0.9666666666666667 0.2333333333333333 0  1 0.2333333333333333 0  0 0.2666666666666667 0  0.03333333333333333 0.2666666666666667 0  0.06666666666666667 0.2666666666666667 0  0.1 0.2666666666666667 0  0.1333333333333333 0.2666666666666667 0  0.1666666666666667 0.2666666666666667 0  0.2 0.2666666666666667 0  0.2333333333333333 0.2666666666666667 0  0.2666666666666667 0.2666666666666667 0  0.3 0.2666666666666667 0  0.3333333333333333 0.2666666666666667 0  0.3666666666666666 0.2666666666666667 0  0.4 0.2666666666666667 0  0.4333333333333333 0.2666666666666667 0  0.4666666666666667 0.2666666666666667 0  0.5 0.2666666666666667 0  0.5333333333333333 0.2666666666666667 0  0.5666666666666667 0.2666666666666667 0  0.6 0.2666666666666667 0  0.6333333333333333 0.2666666666666667 0  0.6666666666666666 0.2666666666666667 0  0.7 0.2666666666666667 0  0.7333333333333333 0.2666666666666667 0  0.7666666666666667 0.2666666666666667 0  0.8 0.2666666666666667 0  0.8333333333333334 0.2666666666666667 0  0.8666666666666667 0.2666666666666667 0  0.9 0.2666666666666667 0  0.9333333333333333 0.2666666666666667 0  0.9666666666666667 0.2666666666666667 0  1 0.2666666666666667 0  0 0.3 0  0.03333333333333333 0.3 0  0.06666666666666667 0.3 0  0.1 0.3 0  0.1333333333333333 0.3 0  0.1666666666666667 0.3 0  0.2 0.3 0  0.2333333333333333 0.3 0  0.2666666666666667 0.3 0  0.3 0.3 0  0.3333333333333333 0.3 0  0.3666666666666666 0.3 0  0.4 0.3 0  0.4333333333333333 0.3 0  0.4666666666666667 0.3 0  0.5 0.3 0  0.5333333333333333 0.3 0  0.5666666666666667 0.3 0  0.6 0.3 0  0.6333333333333333 0.3 0  0.6666666666666666 0.3 0  0.7 0.3 0  0.7333333333333333 0.3 0  0.7666666666666667 0.3 0  0.8 0.3 0  0.8333333333333334 0.3 0  0.8666666666666667 0.3 0  0.9 0.3 0  0.9333333333333333 0.3 0  0.9666666666666667 0.3 0  1 0.3 0  0 0.3333333333333333 0  0.03333333333333333 0.3333333333333333 0  0.06666666666666667 0.3333333333333333 0  0.1 0.3333333333333333 0  0.1333333333333333 0.3333333333333333 0  0.1666666666666667 0.3333333333333333 0  0.2 0.3333333333333333 0  0.2333333333333333 0.3333333333333333 0  0.2666666666666667 0.3333333333333333 0  0.3 0.3333333333333333 0  0.3333333333333333 0.3333333333333333 0  0.3666666666666666 0.3333333333333333 0  0.4 0.3333333333333333 0  0.4333333333333333 0.3333333333333333 0  0.4666666666666667 0.3333333333333333 0  0.5 0.3333333333333333 0  0.5333333333333333 0.33333333333333
[...]
<PointData  Vectors="u_f"> 
<DataArray  type="Float64"  Name="u_f"  NumberOfComponents="3" format="ascii">2.7078159695209138e-06 -4.4856876169237225e-09 0.0000000000000000e+00  2.7078159747007981e-06 -4.4856928418024120e-09 0.0000000000000000e+00  2.7078159682019818e-06 -4.4856972480000409e-09 0.0000000000000000e+00  2.7078159687579607e-06 -4.4856931493905683e-09 0.0000000000000000e+00  2.7078159740275085e-06 -4.4856955247148979e-09 0.0000000000000000e+00  2.7078159731441548e-06 -4.4857009952195895e-09 0.0000000000000000e+00  2.7078159682374895e-06 -4.4857019554974537e-09 0.0000000000000000e+00  2.7078159675035930e-06 -4.4856948740851742e-09 0.0000000000000000e+00  2.7078159713789110e-06 -4.4856957185702463e-09 0.0000000000000000e+00  2.7078159699503120e-06 -4.4856921220005896e-09 0.0000000000000000e+00  2.7078159723428210e-06 -4.4856911280582480e-09 0.0000000000000000e+00  2.7078159670740863e-06 -4.4857011478752554e-09 0.0000000000000000e+00  2.7078159671752966e-06 -4.4856900005964088e-09 0.0000000000000000e+00  2.7078159740006203e-06 -4.4856925294979762e-09 0.0000000000000000e+00  2.7078159690593689e-06 -4.4856916610520360e-09 0.0000000000000000e+00  2.7078159730299883e-06 -4.4856922317760596e-09 0.0000000000000000e+00  2.7078159726573480e-06 -4.4856937410939039e-09 0.0000000000000000e+00  2.7078159756105521e-06 -4.4856937304687226e-09 0.0000000000000000e+00  2.7078159721369310e-06 -4.4856937736741792e-09 0.0000000000000000e+00  2.7078159705682531e-06 -4.4856927345206070e-09 0.0000000000000000e+00  2.7078159719861185e-06 -4.4856855055484118e-09 0.0000000000000000e+00  2.7078159715666406e-06 -4.4856953399668477e-09 0.0000000000000000e+00  2.7078159752882188e-06 -4.4856682552955364e-09 0.0000000000000000e+00  2.7078159818433594e-06 -4.4856837584650311e-09 0.0000000000000000e+00  2.7078159751629935e-06 -4.4856938304863730e-09 0.0000000000000000e+00  2.7078159728571123e-06 -4.4856940480857491e-09 0.0000000000000000e+00  2.7078159722398218e-06 -4.4856925957427289e-09 0.0000000000000000e+00  2.7078159734595492e-06 -4.4856934617492142e-09 0.0000000000000000e+00  2.7078159713767968e-06 -4.4856875629846645e-09 0.0000000000000000e+00  2.7078159715354156e-06 -4.4856850699159789e-09 0.0000000000000000e+00  2.7078159695209680e-06 1.0300621357136229e-09 0.0000000000000000e+00  4.1704731908542533e-04 -8.5679247068459405e-09 0.0000000000000000e+00  4.1704731908497755e-04 -8.5679265713484165e-09 0.0000000000000000e+00  4.1704731908482110e-04 -8.5679133021232881e-09 0.0000000000000000e+00  4.1704731909664183e-04 -8.5679217420950998e-09 0.0000000000000000e+00  4.1704731908466400e-04 -8.5679262336194398e-09 0.0000000000000000e+00  4.1704731908250394e-04 -8.5679269550475654e-09 0.0000000000000000e+00  4.1704731908423411e-04 -8.5679265470622878e-09 0.0000000000000000e+00  4.1704731908698549e-04 -8.5679295355571561e-09 0.0000000000000000e+00  4.1704731908672767e-04 -8.5679256141063184e-09 0.0000000000000000e+00  4.1704731908367336e-04 -8.5679291875282587e-09 0.0000000000000000e+00  4.1704731908626103e-04 -8.5679227084444962e-09 0.0000000000000000e+00  4.1704731907738195e-04 -8.5679363097607500e-09 0.0000000000000000e+00  4.1704731907851224e-04 -8.5679312532586580e-09 0.0000000000000000e+00  4.1704731908568629e-04 -8.5679224956156097e-09 0.0000000000000000e+00  4.1704731908607682e-04 -8.5679205600978914e-09 0.0000000000000000e+00  4.1704731908433549e-04 -8.5679251226374736e-09 0.0000000000000000e+00  4.1704731908589489e-04 -8.5679261710609744e-09 0.0000000000000000e+00  4.1704731908639720e-04 -8.5679256666901238e-09 0.0000000000000000e+00  4.1704731908581043e-04 -8.5679311192512694e-09 0.0000000000000000e+00  4.1704731908315436e-04 -8.5679205132603575e-09 0.0000000000000000e+00  4.1704731908510223e-04 -8.5679315470774467e-09 0.0000000000000000e+00  4.1704731908745701e-04 -8.5679266371594884e-09 0.0000000000000000e+00  4.1704731909262996e-04 -8.5679201774829447e-09 0.0000000000000000e+00  4.1704731909258550e-04 -8.5679231304159817e-09 0.0000000000000000e+00  4.1704731908576154e-04 -8.5679268006571760e-09 0.0000000000000000e+00  4.1704731908731466e-04 -8.5679236273058373e-09 0.0000000000000000e+00  4.1704731908656732e-04 -8.5679246477569221e-09 0.0000000000000000e+00  4.1704731908427379e-04 -8.5679254578727854e-09 0.0000000000000000e+00  4.1704731908443046e-04 -8.5679290272831776e-09 0.0000000000000000e+00  4.1704731908405522e-04 -8.5679284710874631e-09 0.0000000000000000e+00  4.1704731908542554e-04 4.5664953860585806e-09 0.0000000000000000e+00  7.5927553231034024e-04 -1.1225224298043804e-08 0.0000000000000000e+00  7.5927553231663458e-04 -1.1225231379618714e-08 0.0000000000000000e+00  7.5927553230838857e-04 -1.1225229089024784e-08 0.0000000000000000e+00  7.5927553231582229e-04 -1.1225235493732277e-08 0.0000000000000000e+00  7.5927553230732139e-04 -1.1225232834834870e-08 0.0000000000000000e+00  7.5927553230816132e-04 -1.1225230992341698e-08 0.0000000000000000e+00  7.5927553231751115e-04 -1.1225231822948982e-08 0.0000000000000000e+00  7.5927553231247590e-04 -1.1225229627656423e-08 0.0000000000000000e+00  7.5927553231207995e-04 -1.1225228005581553e-08 0.0000000000000000e+00  7.5927553231431362e-04 -1.1225220418009489e-08 0.0000000000000000e+00  7.5927553231621770e-04 -1.1225228441430826e-08 0.0000000000000000e+00  7.5927553230065333e-04 -1.1225244581189626e-08 0.0000000000000000e+00  7.5927553230682667e-04 -1.1225233320232182e-08 0.0000000000000000e+00  7.5927553231275357e-04 -1.1225225750332614e-08 0.0000000000000000e+00  7.5927553231309032e-04 -1.1225228981580349e-08 0.0000000000000000e+00  7.5927553231228530e-04 -1.1225229897080663e-08 0.0000000000000000e+00  7.5927553231139864e-04 -1.1225223457895540e-08 0.0000000000000000e+00  7.5927553231674343e-04 -1.1225218695103817e-08 0.0000000000000000e+00  7.5927553231557227e-04 -1.1225218308260482e-08 0.0000000000000000e+00  7.5927553231270966e-04 -1.1225222527541656e-08 0.0000000000000000e+00  7.5927553231791664e-04 -1.1225232118936175e-08 0.0000000000000000e+00  7.5927553230954205e-04 -1.1225235850326372e-08 0.0000000000000000e+00  7.5927553231780638e-04 -1.1225216704725469e-08 0.0000000000000000e+00  7.5927553231857692e-04 -1.1225229833329575e-08 0.0000000000000000e+00  7.5927553231442692e-04 -1.1225226306962009e-08 0.0000000000000000e+00  7.5927553231448959e-04 -1.1225224407765064e-08 0.0000000000000000e+00  7.5927553231285581e-04 -1.1225223003289569e-08 0.0000000000000000e+00  7.5927553231394771e-04 -1.1225220239766652e-08 0.0000000000000000e+00  7.5927553231515193e-04 -1.1225219282632974e-08 0.0000000000000000e+00  7.5927553231666385e-04 -1.1225227876344654e-08 0.0000000000000000e+00  7.5927553231034067e-04 7.3420013519872684e-09 0.0000000000000000e+00  9.7021810424573261e-04 -1.1945538283802265e-08 0.0000000000000000e+00  9.7021810423890474e-04 -1.1945532150687416e-08 0.0000000000000000e+00  9.7021810424649264e-04 -1.1945540270928007e-08 0.0000000000000000e+00  9.7021810423885226e-04 -1.1945541099475307e-08 0.0000000000000000e+00  9.7021810423612484e-04 -1.1945538636601652e-08 0.0000000000000000e+00  9.7021810424466814e-04 -1.1945529849143044e-08 0.0000000000000000e+00  9.7021810424510095e-04 -1.1945533999685801e-08 0.0000000000000000e+00  9.7021810423769412e-04 -1.1945541553539177e-08 0.0000000000000000e+00  9.7021810424204394e-04 -1.1945539481411985e-08 0.0000000000000000e+00  9.7021810423890105e-04 -1.1945541690148651e-08 0.0000000000000000e+00  9.7021810423985624e-04 -1.1945538049397755e-08 0.0000000000000000e+00  9.7021810423784461e-04 -1.1945532138327511e-08 0.0000000000000000e+00  9.7021810424544812e-04 -1.1945543023934163e-08 0.0000000000000000e+00  9.7021810423915150e-04 -1.1945541207245003e-08 0.0000000000000000e+00  9.7021810424031745e-04 -1.1945543281757440e-08 0.0000000000000000e+00  9.7021810423948739e-04 -1.1945543218006352e-08 0.0000000000000000e+00  9.7021810424232301e-04 -1.1945542787794930e-08 0.0000000000000000e+00  9.7021810424229374e-04 -1.1945549527846155e-08 0.0000000000000000e+00  9.7021810424167900e-04 -1.1945542809695814e-08 0.0000000000000000e+00  9.7021810424146562e-04 -1.1945544481752404e-08 0.0000000000000000e+00  9.7021810424090422e-04 -1.1945537410152154e-08 0.0000000000000000e+00  9.7021810424269359e-04 -1.1945538054601926e-08 0.0000000000000000e+00  9.7021810424314505e-04 -1.1945538980293741e-08 0.0000000000000000e+00  9.7021810424233906e-04 -1.1945541141108670e-08 0.0000000000000000e+00  9.7021810424047054e-04 -1.1945546043003533e-08 0.0000000000000000e+00  9.7021810423878309e-04 -1.1945541391993053e-08 0.0000000000000000e+00  9.7021810424141575e-04 -1.1945543578611995e-08 0.0000000000000000e+00  9.7021810424145478e-04 -1.1945549701535343e-08 0.0000000000000000e+00  9.7021810424019646e-04 -1.1945536542790416e-08 0.0000000000000000e+00  9.7021810424206757e-04 -1.1945532220076355e-08 0.0000000000000000e+00  9.7021810424573283e-04 8.8639254634577978e-09 0.0000000000000000e+00  1.0134011639631284e-03 -1.0555662649514019e-08 0.0000000000000000e+00  1.0134011639632836e-03 -1.0555662244998189e-08 0.0000000000000000e+00  1.0134011639628441e-03 -1.0555663230863224e-08 0.0000000000000000e+00  1.0134011639637349e-03 -1.0555663339500282e-08 0.0000000000000000e+00  1.0134011639600284e-03 -1.0555660851906817e-08 0.0000000000000000e+00  1.0134011639640634e-03 -1.0555669438462763e-08 0.0000000000000000e+00  1.0134011639616257e-03 -1.0555664497536622e-08 0.0000000000000000e+00  1.0134011639692795e-03 -1.0555657756075934e-08 0.0000000000000000e+00  1.0134011639628335e-03 -1.0555651679556438e-08 0.0000000000000000e+00  1.0134011639690993e-03 -1.0555661577129651e-08 0.0000000000000000e+00  1.0134011639595958e-03 -1.0555659115665458e-08 0.0000000000000000e+00  1.0134011639657190e-03 -1.0555656625578329e-08 0.0000000000000000e+00  1.0134011639642334e-03 -1.0555657895829594e-08 0.0000000000000000e+00  1.0134011639653269e-03 -1.0555661633399743e-08 0.0000000000000000e+00  1.0134011639607089e-03 -1.0555663894069693e-08 0.0000000000000000e+00  1.0134011639676851e-03 -1.0555659554658918e-08 0.0000000000000000e+00  1.0134011639629471e-03 -1.0555661943589985e-08 0.0000000000000000e+00  1.0134011639641141e-03 -1.0555656838840896e-08 0.0000000000000000e+00  1.0134011639654989e-03 -1.0555661982946524e-08 0.0000000000000000e+00  1.0134011639630312e-03 -1.0555661575611767e-08 0.0000000000000000e+00  1.0134011639662530e-03 -1.0555658123620471e-08 0.0000000000000000e+00  1.0134011639636327e-03 -1.0555663333320330e-08 0.0000000000000000e+00  1.0134011639637624e-03 -1.0555671618359651e-08 0.0000000000000000e+00  1.0134011639618781e-03 -1.0555660338428668e-08 0.0000000000000000e+00  1.0134011639651506e-03 -1.0555657293230027e-08 0.0000000000000000e+00  1.0134011639635933e-03 -1.0555658625714497e-08 0.0000000000000000e+00  1.0134011639666176e-03 -1.0555658406380397e-08 0.0000000000000000e+00  1.0134011639636542e-03 -1.0555656457635412e-08 0.0000000000000000e+00  1.0134011639637832e-03 -1.0555658882019890e-08 0.0000000000000000e+00  1.0134011639619848e-03 -1.0555662304846149e-08 0.0000000000000000e+00  1.0134011639631286e-03 8.8481009320134332e-09 0.0000000000000000e+00  8.8135797400913500e-04 -7.2834797784984695e-09 0.0000000000000000e+00  8.8135797400479483e-04 -7.2834772888450208e-09 0.0000000000000000e+00  8.8135797400931747e-04 -7.2834755176923519e-09 0.0000000000000000e+00  8.8135797400511293e-04 -7.2834784969715016e-09 0.0000000000000000e+00  8.8135797401185146e-04 -7.2834816224011042e-09 0.0000000000000000e+00  8.8135797400519598e-04 -7.2834793119662747e-09 0.0000000000000000e+00  8.8135797400569699e-04 -7.2834762853074900e-09 0.0000000000000000e+00  8.8135797400773616e-04 -7.2834795237109590e-09 0.0000000000000000e+00  8.8135797400233401e-04 -7.2834764837164875e-09 0.0000000000000000e+00  8.8135797401193451e-04 -7.2834739628380163e-09 0.0000000000000000e+00  8.8135797400918086e-04 -7.2834849932940787e-09 0.0000000000000000e+00  8.8135797400542887e-04 -7.2834783525557723e-09 0.0000000000000000e+00  8.8135797401262602e-04 -7.2834804016978782e-09 0.0000000000000000e+00  8.8135797400722875e-04 -7.2834786706606897e-09 0.0000000000000000e+00  8.8135797400354919e-04 -7.2834770688604000e-09 0.0000000000000000e+00  8.8135797401118587e-04 -7.2834776180088004e-09 0.0000000000000000e+00  8.8135797400612970e-04 -7.2834779757955173e-09 0.0000000000000000e+00  8.8135797400728068e-04 -7.2834747558234852e-09 0.0000000000000000e+00  8.8135797400893095e-04 -7.2834769138194894e-09 0.0000000000000000e+00  8.8135797400526331e-04 -7.2834811181386738e-09 0.0000000000000000e+00  8.8135797400347763e-04 -7.2834779245127546e-09 0.0000000000000000e+00  8.8135797401253701e-04 -7.2834784268236211e-09 0.0000000000000000e+00  8.8135797400826557e-04 -7.2834744033493590e-09 0.0000000000000000e+00  8.8135797400710418e-04 -7.2834770078198177e-09 0.0000000000000000e+00  8.8135797400837475e-04 -7.2834768223128260e-09 0.0000000000000000e+00  8.8135797400666778e-04 -7.2834802981565708e-09 0.0000000000000000e+00  8.8135797400859365e-04 -7.2834819117746641e-09 0.0000000000000000e+00  8.8135797400292328e-04 -7.2834765458412720e-09 0.0000000000000000e+00  8.8135797400944757e-04 -7.2834766436363080e-09 0.0000000000000000e+00  8.8135797401280849e-04 -7.2834797551881228e-09 0.0000000000000000e+00  8.8135797400913543e-04 7.2818117772486618e-09 0.0000000000000000e+00  5.9691999320452861e-04 -2.7267302055047730e-09 0.0000000000000000e+00  5.9691999321259464e-04 -2.7267314181306929e-09 0.0000000000000000e+00  5.9691999321513601e-04 -2.7267243415973232e-09 0.0000000000000000e+00  5.9691999321642535e-04 -2.7267294832634958e-09 0.0000000000000000e+00  5.9691999320897731e-04 -2.7267267254326398e-09 0.0000000000000000e+00  5.9691999320951898e-04 -2.7267213175948338e-09 0.0000000000000000e+00  5.9691999321602224e-04 -2.7267236951959879e-09 0.0000000000000000e+00  5.9691999321435278e-04 -2.7267251575136681e-09 0.0000000000000000e+00  5.9691999320774360e-04 -2.7267304563349457e-09 0.0000000000000000e+00  5.9691999321586091e-04 -2.7267326280461072e-09 0.0000000000000000e+00  5.9691999321048110e-04 -2.7267302351034924e-09 0.0000000000000000e+00  5.9691999320597483e-04 -2.7267171898203227e-09 0.0000000000000000e+00  5.9691999322135868e-04 -2.7267262741876956e-09 0.0000000000000000e+00  5.9691999321146035e-04 -2.7267300655342726e-09 0.0000000000000000e+00  5.9691999320685694e-04 -2.7267306277473091e-09 0.0000000000000000e+00  5.9691999321642123e-04 -2.7267274482702282e-09 0.0000000000000000e+00  5.9691999321232554e-04 -2.7267292037561758e-09 0.0000000000000000e+00  5.9691999321294311e-04 -2.7267293649770388e-09 0.0000000000000000e+00  5.9691999321174831e-04 -2.7267309961049972e-09 0.0000000000000000e+00  5.9691999320822379e-04 -2.7267257036805125e-09 0.0000000000000000e+00  5.9691999321320895e-04 -2.7267307290660021e-09 0.0000000000000000e+00  5.9691999320883626e-04 -2.7267299645408402e-09 0.0000000000000000e+00  5.9691999321489586e-04 -2.7267243659918720e-09 0.0000000000000000e+00  5.9691999321330913e-04 -2.7267277836681703e-09 0.0000000000000000e+00  5.9691999321201047e-04 -2.7267257345802744e-09 0.0000000000000000e+00  5.9691999320951193e-04 -2.7267275360363941e-09 0.0000000000000000e+00  5.9691999321131247e-04 -2.7267205807168272e-09 0.0000000000000000e+00  5.9691999321306876e-04 -2.7267288410905491e-09 0.0000000000000000e+00  5.9691999320911999e-04 -2.7267262489257850e-09 0.0000000000000000e+00  5.9691999321537779e-04 -2.7267288993664159e-09 0.0000000000000000e+00  5.9691999320452872e-04 4.4362385386990617e-09 0.0000000000000000e+00  2.0926911554548284e-04 2.2715019015588124e-09 0.0000000000000000e+00  2.0926911554429721e-04 2.2715072365653375e-09 0.0000000000000000e+00  2.0926911554643412e-04 2.2715043302123364e-09 0.0000000000000000e+00  2.0926911554768307e-04 2.2715013476263700e-09 0.0000000000000000e+00  2.0926911554456761e-04 2.2715040700173675e-09 0.0000000000000000e+00  2.0926911554533794e-04 2.2714990149653959e-09 0.0000000000000000e+00  2.0926911554061542e-04 2.2715082371890750e-09 0.0000000000000000e+00  2.0926911554893624e-04 2.2715053598791396e-09 0.0000000000000000e+00  2.0926911554548799e-04 2.2714973027120099e-09 0.0000000000000000e+00  2.0926911554062345e-04 2.2714958592052375e-09 0.0000000000000000e+00  2.0926911554299649e-04 2.2715075061251026e-09 0.0000000000000000e+00  2.0926911554571575e-04 2.2714994483752143e-09 0.0000000000000000e+00  2.0926911554626444e-04 2.2714967718730737e-09 0.0000000000000000e+00  2.0926911553506512e-04 2.2714972728151350e-09 0.0000000000000000e+00  2.0926911554685490e-04 2.2715015665945512e-09 0.0000000000000000e+00  2.0926911554491258e-04 2.2715013566116955e-09 0.0000000000000000e+00  2.0926911554807620e-04 2.2715041880463265e-09 0.0000000000000000e+00  2.0926911554708922e-04 2.2715019929299505e-09 0.0000000000000000e+00  2.0926911554391210e-04 2.2715009589127861e-09 0.0000000000000000e+00  2.0926911554723478e-04 2.2714998116778098e-09 0.0000000000000000e+00  2.0926911554049155e-04 2.2714955935350476e-09 0.0000000000000000e+00  2.0926911554638311e-04 2.2715047350534276e-09 0.0000000000000000e+00  2.0926911554060502e-04 2.2715003627506690e-09 0.0000000000000000e+00  2.0926911554770345e-04 2.2715095577473211e-09 0.0000000000000000e+00  2.0926911554421907e-04 2.2714972026537019e-09 0.0000000000000000e+00  2.0926911554416429e-04 2.2715018537997067e-09 0.0000000000000000e+00  2.0926911554686720e-04 2.2715039331097382e-09 0.0000000000000000e+00  2.0926911554626536e-04 2.2714982173991727e-09 0.0000000000000000e+00  2.0926911554042371e-04 2.2715005391232574e-09 0.0000000000000000e+00  2.0926911554557305e-04 2.2715079724133520e-09 0.0000000000000000e+00  2.0926911554548284e-04 8.1929893358109012e-10 0.0000000000000000e+00  -2.1456631494436531e-04 6.8050132621998508e-09 0.0000000000000000e+00  -2.1456631495238857e-04 6.8050118697590006e-09 0.0000000000000000e+00  -2.1456631494937769e-04 6.8050111896389778e-09 0.0000000000000000e+00  -2.1456631494847937e-04 6.8050162715114007e-09 0.0000000000000000e+00  -2.1456631495037136e-04 6.8050063951343408e-09 0.0000000000000000e+00  -2.1456631494795277e-04 6.8050157451854561e-09 0.0000000000000000e+00  -2.1456631494506283e-04 6.8050177782813699e-09 0.0000000000000000e+00  -2.1456631494997389e-04 6.8050175906059739e-09 0.0000000000000000e+00  -2.1456631495212202e-04 6.8050129886556426e-09 0.0000000000000000e+00  -2.1456631494799582e-04 6.8050150709743351e-09 0.0000000000000000e+00  -2.1456631494728154e-04 6.8050105626990716e-09 0.0000000000000000e+00  -2.1456631494778803e-04 6.8050087227537748e-09 0.0000000000000000e+00  -2.1456631495494116e-04 6.8050134641867155e-09 0.0000000000000000e+00  -2.1456631494682867e-04 6.8050179760398462e-09 0.0000000000000000e+00  -2.1456631495153801e-04 6.8050121757750638e-09 0.0000000000000000e+00  -2.1456631494776732e-04 6.8050116470096643e-09 0.0000000000000000e+00  -2.1456631495148483e-04 6.8050104016950490e-09 0.0000000000000000e+00  -2.1456631494908463e-04 6.8050114908303413e-09 0.0000000000000000e+00  -2.1456631494687150e-04 6.8050139255689500e-09 0.0000000000000000e+00  -2.1456631494914746e-04 6.8050110504274189e-09 0.0000000000000000e+00  -2.1456631495173452e-04 6.8050201876496477e-09 0.0000000000000000e+00  -2.1456631494721275e-04 6.8050140774114642e-09 0.0000000000000000e+00  -2.1456631495076416e-04 6.8050111420967126e-09 0.0000000000000000e+00  -2.1456631494450273e-04 6.8050211315018490e-09 0.0000000000000000e+00  -2.1456631494438141e-04 6.8050172427397068e-09 0.0000000000000000e+00  -2.1456631495281829e-04 6.8050120184573286e-09 0.0000000000000000e+00  -2.1456631494879926e-04 6.8050130610261376e-09 0.0000000000000000e+00  -2.1456631494891251e-04 6.8050097741588315e-09 0.0000000000000000e+00  -2.1456631495362125e-04 6.8050102651939955e-09 0.0000000000000000e+00  -2.1456631494968213e-04 6.8050145192780596e-09 0.0000000000000000e+00  -2.1456631494436547e-04 -2.9226651109975167e-09 0.0000000000000000e+00  -6.0130130422693471e-04 1.0088988533821751e-08 0.0000000000000000e+00  -6.0130130422901182e-04 1.0088982511512364e-08 0.00