<?xml version="1.0"?>
<VTKFile type="UnstructuredGrid"  version="0.1"  >
<UnstructuredGrid>
<Piece  NumberOfPoints="961" NumberOfCells="1800">
<Points>
<DataArray  type="Float64"  NumberOfComponents="3"  format="ascii">0 0 0  0.03333333333333333 0 0  0.06666666666666667 0 0  0.1 0 0  0.1333333333333333 0 0  0.1666666666666667 0 0  0.2 0 0  0.2333333333333333 0 0  0.2666666666666667 0 0  0.3 0 0  0.3333333333333333 0 0  0.3666666666666666 0 0  0.4 0 0  0.4333333333333333 0 0  0.4666666666666667 0 0  0.5 0 0  0.5333333333333333 0 0  0.5666666666666667 0 0  0.6 0 0  0.6333333333333333 0 0  0.6666666666666666 0 0  0.7 0 0  0.7333333333333333 0 0  0.7666666666666667 0 0  0.8 0 0  0.8333333333333334 0 0  0.8666666666666667 0 0  0.9 0 0  0.9333333333333333 0 0  0.9666666666666667 0 0  1 0 0  0 0.03333333333333333 0  0.03333333333333333 0.03333333333333333 0  0.06666666666666667 0.03333333333333333 0  0.1 0.03333333333333333 0  0.1333333333333333 0.03333333333333333 0  0.1666666666666667 0.03333333333333333 0  0.2 0.03333333333333333 0  0.2333333333333333 0.03333333333333333 0  0.2666666666666667 0.03333333333333333 0  0.3 0.03333333333333333 0  0.3333333333333333 0.03333333333333333 0  0.3666666666666666 0.03333333333333333 0  0.4 0.03333333333333333 0  0.4333333333333333 0.03333333333333333 0  0.4666666666666667 0.03333333333333333 0  0.5 0.03333333333333333 0  0.5333333333333333 0.03333333333333333 0  0.5666666666666667 0.03333333333333333 0  0.6 0.03333333333333333 0  0.6333333333333333 0.03333333333333333 0  0.6666666666666666 0.03333333333333333 0  0.7 0.03333333333333333 0  0.7333333333333333 0.03333333333333333 0  0.7666666666666667 0.03333333333333333 0  0.8 0.03333333333333333 0  0.8333333333333334 0.03333333333333333 0  0.8666666666666667 0.03333333333333333 0  0.9 0.03333333333333333 0  0.9333333333333333 0.03333333333333333 0  0.9666666666666667 0.03333333333333333 0  1 0.03333333333333333 0  0 0.06666666666666667 0  0.03333333333333333 0.06666666666666667 0  0.06666666666666667 0.06666666666666667 0  0.1 0.06666666666666667 0  0.1333333333333333 0.06666666666666667 0  0.1666666666666667 0.06666666666666667 0  0.2 0.06666666666666667 0  0.2333333333333333 0.06666666666666667 0  0.2666666666666667 0.06666666666666667 0  0.3 0.06666666666666667 0  0.3333333333333333 0.06666666666666667 0  0.3666666666666666 0.06666666666666667 0  0.4 0.06666666666666667 0  0.4333333333333333 0.06666666666666667 0  0.4666666666666667 0.06666666666666667 0  0.5 0.06666666666666667 0  0.5333333333333333 0.06666666666666667 0  0.5666666666666667 0.06666666666666667 0  0.6 0.06666666666666667 0  0.6333333333333333 0.06666666666666667 0  0.6666666666666666 0.06666666666666667 0  0.7 0.06666666666666667 0  0.7333333333333333 0.06666666666666667 0  0.7666666666666667 0.06666666666666667 0  0.8 0.06666666666666667 0  0.8333333333333334 0.06666666666666667 0  0.8666666666666667 0.06666666666666667 0  0.9 0.06666666666666667 0  0.9333333333333333 0.06666666666666667 0  0.9666666666666667 0.06666666666666667 0  1 0.06666666666666667 0  0 0.1 0  0.03333333333333333 0.1 0  0.06666666666666667 0.1 0  0.1 0.1 0  0.1333333333333333 0.1 0  0.1666666666666667 0.1 0  0.2 0.1 0  0.2333333333333333 0.1 0  0.2666666666666667 0.1 0  0.3 0.1 0  0.3333333333333333 0.1 0  0.3666666666666666 0.1 0  0.4 0.1 0  0.4333333333333333 0.1 0  0.4666666666666667 0.1 0  0.5 0.1 0  0.5333333333333333 0.1 0  0.5666666666666667 0.1 0  0.6 0.1 0  0.6333333333333333 0.1 0  0.6666666666666666 0.1 0  0.7 0.1 0  0.7333333333333333 0.1 0  0.7666666666666667 0.1 0  0.8 0.1 0  0.8333333333333334 0.1 0  0.8666666666666667 0.1 0  0.9 0.1 0  0.9333333333333333 0.1 0  0.9666666666666667 0.1 0  1 0.1 0  0 0.1333333333333333 0  0.03333333333333333 0.1333333333333333 0  0.06666666666666667 0.1333333333333333 0  0.1 0.1333333333333333 0  0.1333333333333333 0.1333333333333333 0  0.1666666666666667 0.1333333333333333 0  0.2 0.1333333333333333 0  0.2333333333333333 0.1333333333333333 0  0.2666666666666667 0.1333333333333333 0  0.3 0.1333333333333333 0  0.3333333333333333 0.1333333333333333 0  0.3666666666666666 0.1333333333333333 0  0.4 0.1333333333333333 0  0.4333333333333333 0.1333333333333333 0  0.4666666666666667 0.1333333333333333 0  0.5 0.1333333333333333 0  0.5333333333333333 0.1333333333333333 0  0.5666666666666667 0.1333333333333333 0  0.6 0.1333333333333333 0  0.6333333333333333 0.1333333333333333 0  0.6666666666666666 0.1333333333333333 0  0.7 0.1333333333333333 0  0.7333333333333333 0.1333333333333333 0  0.7666666666666667 0.1333333333333333 0  0.8 0.1333333333333333 0  0.8333333333333334 0.1333333333333333 0  0.8666666666666667 0.1333333333333333 0  0.9 0.1333333333333333 0  0.9333333333333333 0.1333333333333333 0  0.9666666666666667 0.1333333333333333 0  1 0.1333333333333333 0  0 0.1666666666666667 0  0.03333333333333333 0.1666666666666667 0  0.06666666666666667 0.1666666666666667 0  0.1 0.1666666666666667 0  0.1333333333333333 0.1666666666666667 0  0.1666666666666667 0.1666666666666667 0  0.2 0.1666666666666667 0  0.2333333333333333 0.1666666666666667 0  0.2666666666666667 0.1666666666666667 0  0.3 0.1666666666666667 0  0.3333333333333333 0.1666666666666667 0  0.3666666666666666 0.1666666666666667 0  0.4 0.1666666666666667 0  0.4333333333333333 0.1666666666666667 0  0.4666666666666667 0.1666666666666667 0  0.5 0.1666666666666667 0  0.5333333333333333 0.1666666666666667 0  0.5666666666666667 0.1666666666666667 0  0.6 0.1666666666666667 0  0.6333333333333333 0.1666666666666667 0  0.6666666666666666 0.1666666666666667 0  0.7 0.1666666666666667 0  0.7333333333333333 0.1666666666666667 0  0.7666666666666667 0.1666666666666667 0  0.8 0.1666666666666667 0  0.8333333333333334 0.1666666666666667 0  0.8666666666666667 0.1666666666666667 0  0.9 0.1666666666666667 0  0.9333333333333333 0.1666666666666667 0  0.9666666666666667 0.1666666666666667 0  1 0.1666666666666667 0  0 0.2 0  0.03333333333333333 0.2 0  0.06666666666666667 0.2 0  0.1 0.2 0  0.1333333333333333 0.2 0  0.1666666666666667 0.2 0  0.2 0.2 0  0.2333333333333333 0.2 0  0.2666666666666667 0.2 0  0.3 0.2 0  0.3333333333333333 0.2 0  0.3666666666666666 0.2 0  0.4 0.2 0  0.4333333333333333 0.2 0  0.4666666666666667 0.2 0  0.5 0.2 0  0.5333333333333333 0.2 0  0.5666666666666667 0.2 0  0.6 0.2 0  0.6333333333333333 0.2 0  0.6666666666666666 0.2 0  0.7 0.2 0  0.7333333333333333 0.2 0  0.7666666666666667 0.2 0  0.8 0.2 0  0.8333333333333334 0.2 0  0.8666666666666667 0.2 0  0.9 0.2 0  0.9333333333333333 0.2 0  0.9666666666666667 0.2 0  1 0.2 0  0 0.2333333333333333 0  0.03333333333333333 0.2333333333333333 0  0.06666666666666667 0.2333333333333333 0  0.1 0.2333333333333333 0  0.1333333333333333 0.2333333333333333 0  0.1666666666666667 0.2333333333333333 0  0.2 0.2333333333333333 0  0.2333333333333333 0.2333333333333333 0  0.2666666666666667 0.2333333333333333 0  0.3 0.2333333333333333 0  0.3333333333333333 0.2333333333333333 0  0.3666666666666666 0.2333333333333333 0  0.4 0.2333333333333333 0  0.4333333333333333 0.2333333333333333 0  0.4666666666666667 0.2333333333333333 0  0.5 0.2333333333333333 0  0.5333333333333333 0.2333333333333333 0  0.5666666666666667 0.2333333333333333 0  0.6 0.2333333333333333 0  0.6333333333333333 0.2333333333333333 0  0.6666666666666666 0.2333333333333333 0  0.7 0.2333333333333333 0  0.7333333333333333 0.2333333333333333 0  0.7666666666666667 0.2333333333333333 0  0.8 0.2333333333333333 0  0.8333333333333334 0.2333333333333333 0  0.8666666666666667 0.2333333333333333 0  0.9 0.2333333333333333 0  0.9333333333333333 0.2333333333333333 0  0.9666666666666667 0.2333333333333333 0  1 0.2333333333333333 0  0 0.2666666666666667 0  0.03333333333333333 0.2666666666666667 0  0.06666666666666667 0.2666666666666667 0  0.1 0.2666666666666667 0  0.1333333333333333 0.2666666666666667 0  0.1666666666666667 0.2666666666666667 0  0.2 0.2666666666666667 0  0.2333333333333333 0.2666666666666667 0  0.2666666666666667 0.2666666666666667 0  0.3 0.2666666666666667 0  0.3333333333333333 0.2666666666666667 0  0.3666666666666666 0.2666666666666667 0  0.4 0.2666666666666667 0  0.4333333333333333 0.2666666666666667 0  0.4666666666666667 0.2666666666666667 0  0.5 0.2666666666666667 0  0.5333333333333333 0.2666666666666667 0  0.5666666666666667 0.2666666666666667 0  0.6 0.2666666666666667 0  0.6333333333333333 0.2666666666666667 0  0.6666666666666666 0.2666666666666667 0  0.7 0.2666666666666667 0  0.7333333333333333 0.2666666666666667 0  0.7666666666666667 0.2666666666666667 0  0.8 0.2666666666666667 0  0.8333333333333334 0.2666666666666667 0  0.8666666666666667 0.2666666666666667 0  0.9 0.2666666666666667 0  0.9333333333333333 0.2666666666666667 0  0.9666666666666667 0.2666666666666667 0  1 0.2666666666666667 0  0 0.3 0  0.03333333333333333 0.3 0  0.06666666666666667 0.3 0  0.1 0.3 0  0.1333333333333333 0.3 0  0.1666666666666667 0.3 0  0.2 0.3 0  0.2333333333333333 0.3 0  0.2666666666666667 0.3 0  0.3 0.3 0  0.3333333333333333 0.3 0  0.3666666666666666 0.3 0  0.4 0.3 0  0.4333333333333333 0.3 0  0.4666666666666667 0.3 0  0.5 0.3 0  0.5333333333333333 0.3 0  0.5666666666666667 0.3 0  0.6 0.3 0  0.6333333333333333 0.3 0  0.6666666666666666 0.3 0  0.7 0.3 0  0.7333333333333333 0.3 0  0.7666666666666667 0.3 0  0.8 0.3 0  0.8333333333333334 0.3 0  0.8666666666666667 0.3 0  0.9 0.3 0  0.9333333333333333 0.3 0  0.9666666666666667 0.3 0  1 0.3 0  0 0.3333333333333333 0  0.03333333333333333 0.3333333333333333 0  0.06666666666666667 0.3333333333333333 0  0.1 0.3333333333333333 0  0.1333333333333333 0.3333333333333333 0  0.1666666666666667 0.3333333333333333 0  0.2 0.3333333333333333 0  0.2333333333333333 0.3333333333333333 0  0.2666666666666667 0.3333333333333333 0  0.3 0.3333333333333333 0  0.3333333333333333 0.3333333333333333 0  0.3666666666666666 0.3333333333333333 0  0.4 0.3333333333333333 0  0.4333333333333333 0.3333333333333333 0  0.4666666666666667 0.3333333333333333 0  0.5 0.3333333333333333 0  0.5333333333333333 0.33333333333333
[...]
<PointData  Vectors="u_f"> 
<DataArray  type="Float64"  Name="u_f"  NumberOfComponents="3" format="ascii">2.7080746119142779e-06 -3.4934481367822692e-09 0.0000000000000000e+00  2.7080746176793061e-06 -3.4934270629820123e-09 0.0000000000000000e+00  2.7080746180267387e-06 -3.4934367651819932e-09 0.0000000000000000e+00  2.7080746120299081e-06 -3.4934494009077922e-09 0.0000000000000000e+00  2.7080746045225128e-06 -3.4934639729644612e-09 0.0000000000000000e+00  2.7080746131517321e-06 -3.4934385529229554e-09 0.0000000000000000e+00  2.7080746177819801e-06 -3.4934286676554377e-09 0.0000000000000000e+00  2.7080746170259117e-06 -3.4934284964057045e-09 0.0000000000000000e+00  2.7080746208553680e-06 -3.4934367646398921e-09 0.0000000000000000e+00  2.7080746025072520e-06 -3.4934333336279072e-09 0.0000000000000000e+00  2.7080746222941043e-06 -3.4934174100048100e-09 0.0000000000000000e+00  2.7080745943057504e-06 -3.4935280807005080e-09 0.0000000000000000e+00  2.7080745527265971e-06 -3.4934689785090511e-09 0.0000000000000000e+00  2.7080746120101214e-06 -3.4934250895714281e-09 0.0000000000000000e+00  2.7080746294023505e-06 -3.4934271324251615e-09 0.0000000000000000e+00  2.7080746065052475e-06 -3.4934372986636722e-09 0.0000000000000000e+00  2.7080746174060330e-06 -3.4934330876224343e-09 0.0000000000000000e+00  2.7080746257233815e-06 -3.4934513744810068e-09 0.0000000000000000e+00  2.7080746114069797e-06 -3.4934525330052382e-09 0.0000000000000000e+00  2.7080746168346584e-06 -3.4934455322033903e-09 0.0000000000000000e+00  2.7080746022179868e-06 -3.4934434028303235e-09 0.0000000000000000e+00  2.7080746152394718e-06 -3.4934487876288334e-09 0.0000000000000000e+00  2.7080746442167264e-06 -3.4933702954030935e-09 0.0000000000000000e+00  2.7080746614024692e-06 -3.4934465874573647e-09 0.0000000000000000e+00  2.7080745989610435e-06 -3.4934318179132701e-09 0.0000000000000000e+00  2.7080746385844587e-06 -3.4934368993520121e-09 0.0000000000000000e+00  2.7080746068764241e-06 -3.4934390567517050e-09 0.0000000000000000e+00  2.7080746188653149e-06 -3.4934467810958728e-09 0.0000000000000000e+00  2.7080746172464926e-06 -3.4934374168417090e-09 0.0000000000000000e+00  2.7080746156097268e-06 -3.4934433906330491e-09 0.0000000000000000e+00  2.7080746119143863e-06 7.7080551510692356e-10 0.0000000000000000e+00  4.1704789681640524e-04 -7.0751374063897018e-09 0.0000000000000000e+00  4.1704789682830209e-04 -7.0751598371231877e-09 0.0000000000000000e+00  4.1704789684349317e-04 -7.0751465823179482e-09 0.0000000000000000e+00  4.1704789682654362e-04 -7.0751263467686010e-09 0.0000000000000000e+00  4.1704789684170196e-04 -7.0751176869205887e-09 0.0000000000000000e+00  4.1704789685215735e-04 -7.0751440946160635e-09 0.0000000000000000e+00  4.1704789683315519e-04 -7.0751362788194425e-09 0.0000000000000000e+00  4.1704789684306686e-04 -7.0751362355597758e-09 0.0000000000000000e+00  4.1704789681509986e-04 -7.0751642284672470e-09 0.0000000000000000e+00  4.1704789682784195e-04 -7.0751547253267849e-09 0.0000000000000000e+00  4.1704789684056907e-04 -7.0751263297466269e-09 0.0000000000000000e+00  4.1704789679751833e-04 -7.0751943980189996e-09 0.0000000000000000e+00  4.1704789679490660e-04 -7.0751580298665864e-09 0.0000000000000000e+00  4.1704789682788185e-04 -7.0751506864568520e-09 0.0000000000000000e+00  4.1704789683381243e-04 -7.0751537493279892e-09 0.0000000000000000e+00  4.1704789682555754e-04 -7.0751374665629224e-09 0.0000000000000000e+00  4.1704789683218581e-04 -7.0751397201855581e-09 0.0000000000000000e+00  4.1704789682537799e-04 -7.0751377539849183e-09 0.0000000000000000e+00  4.1704789683904349e-04 -7.0751324207944319e-09 0.0000000000000000e+00  4.1704789684212935e-04 -7.0751325952425614e-09 0.0000000000000000e+00  4.1704789684571567e-04 -7.0751399290028966e-09 0.0000000000000000e+00  4.1704789682564134e-04 -7.0751550956902470e-09 0.0000000000000000e+00  4.1704789689119850e-04 -7.0750724480428406e-09 0.0000000000000000e+00  4.1704789686102114e-04 -7.0751292629471843e-09 0.0000000000000000e+00  4.1704789684357513e-04 -7.0751443342247436e-09 0.0000000000000000e+00  4.1704789683323640e-04 -7.0751515308335039e-09 0.0000000000000000e+00  4.1704789682274165e-04 -7.0751583678124036e-09 0.0000000000000000e+00  4.1704789683093236e-04 -7.0751342404109380e-09 0.0000000000000000e+00  4.1704789684640067e-04 -7.0751271064690632e-09 0.0000000000000000e+00  4.1704789683373199e-04 -7.0751584492359867e-09 0.0000000000000000e+00  4.1704789681640546e-04 3.9579214479658863e-09 0.0000000000000000e+00  7.5927629662255749e-04 -9.6189200658389207e-09 0.0000000000000000e+00  7.5927629663932186e-04 -9.6189115710064790e-09 0.0000000000000000e+00  7.5927629662552831e-04 -9.6189301317887305e-09 0.0000000000000000e+00  7.5927629661733966e-04 -9.6189500870718161e-09 0.0000000000000000e+00  7.5927629661926076e-04 -9.6189436375867729e-09 0.0000000000000000e+00  7.5927629662622719e-04 -9.6189359381250450e-09 0.0000000000000000e+00  7.5927629662343656e-04 -9.6189497916267241e-09 0.0000000000000000e+00  7.5927629662112060e-04 -9.6189512070526603e-09 0.0000000000000000e+00  7.5927629661289660e-04 -9.6189461180245031e-09 0.0000000000000000e+00  7.5927629662305839e-04 -9.6189163664326879e-09 0.0000000000000000e+00  7.5927629663659292e-04 -9.6189313540098395e-09 0.0000000000000000e+00  7.5927629656507710e-04 -9.6190089671644580e-09 0.0000000000000000e+00  7.5927629658361577e-04 -9.6189429846802246e-09 0.0000000000000000e+00  7.5927629661618466e-04 -9.6189428164120475e-09 0.0000000000000000e+00  7.5927629661042028e-04 -9.6189311797785504e-09 0.0000000000000000e+00  7.5927629662616669e-04 -9.6189420841419002e-09 0.0000000000000000e+00  7.5927629661986802e-04 -9.6189547599831796e-09 0.0000000000000000e+00  7.5927629662630005e-04 -9.6189285087380783e-09 0.0000000000000000e+00  7.5927629663221849e-04 -9.6189331557370097e-09 0.0000000000000000e+00  7.5927629663022356e-04 -9.6189507625297696e-09 0.0000000000000000e+00  7.5927629662245145e-04 -9.6189387523886241e-09 0.0000000000000000e+00  7.5927629662450840e-04 -9.6189400197125435e-09 0.0000000000000000e+00  7.5927629665945647e-04 -9.6188522345731428e-09 0.0000000000000000e+00  7.5927629667752903e-04 -9.6189181502705223e-09 0.0000000000000000e+00  7.5927629661829473e-04 -9.6189550157464720e-09 0.0000000000000000e+00  7.5927629662538259e-04 -9.6189564237998335e-09 0.0000000000000000e+00  7.5927629661104174e-04 -9.6189561638081525e-09 0.0000000000000000e+00  7.5927629660802539e-04 -9.6189367788154095e-09 0.0000000000000000e+00  7.5927629662781359e-04 -9.6189468156001809e-09 0.0000000000000000e+00  7.5927629661804146e-04 -9.6189417592065091e-09 0.0000000000000000e+00  7.5927629662255792e-04 6.5610253434884696e-09 0.0000000000000000e+00  9.7021897186148074e-04 -1.0403625527038995e-08 0.0000000000000000e+00  9.7021897187015110e-04 -1.0403622611185673e-08 0.0000000000000000e+00  9.7021897187539539e-04 -1.0403635305458389e-08 0.0000000000000000e+00  9.7021897186365630e-04 -1.0403611157457082e-08 0.0000000000000000e+00  9.7021897186288781e-04 -1.0403644771627557e-08 0.0000000000000000e+00  9.7021897185785083e-04 -1.0403624615875490e-08 0.0000000000000000e+00  9.7021897188182471e-04 -1.0403634827975752e-08 0.0000000000000000e+00  9.7021897185527541e-04 -1.0403648443820315e-08 0.0000000000000000e+00  9.7021897185472746e-04 -1.0403639002804638e-08 0.0000000000000000e+00  9.7021897187390634e-04 -1.0403650139078832e-08 0.0000000000000000e+00  9.7021897186157203e-04 -1.0403663308232100e-08 0.0000000000000000e+00  9.7021897183600480e-04 -1.0403624592239882e-08 0.0000000000000000e+00  9.7021897187427129e-04 -1.0403629500639958e-08 0.0000000000000000e+00  9.7021897186133263e-04 -1.0403677553130763e-08 0.0000000000000000e+00  9.7021897183376333e-04 -1.0403649800590914e-08 0.0000000000000000e+00  9.7021897186536196e-04 -1.0403637340722707e-08 0.0000000000000000e+00  9.7021897187090180e-04 -1.0403645346037868e-08 0.0000000000000000e+00  9.7021897185739893e-04 -1.0403639088890290e-08 0.0000000000000000e+00  9.7021897187115919e-04 -1.0403616868600446e-08 0.0000000000000000e+00  9.7021897187555086e-04 -1.0403637657526582e-08 0.0000000000000000e+00  9.7021897186188384e-04 -1.0403624019564295e-08 0.0000000000000000e+00  9.7021897188212677e-04 -1.0403618062523878e-08 0.0000000000000000e+00  9.7021897189128242e-04 -1.0403655268656151e-08 0.0000000000000000e+00  9.7021897186077427e-04 -1.0403633389456310e-08 0.0000000000000000e+00  9.7021897185432088e-04 -1.0403631660804366e-08 0.0000000000000000e+00  9.7021897187318383e-04 -1.0403643734262918e-08 0.0000000000000000e+00  9.7021897185938628e-04 -1.0403637577512462e-08 0.0000000000000000e+00  9.7021897185556750e-04 -1.0403653822113612e-08 0.0000000000000000e+00  9.7021897186253783e-04 -1.0403619074735027e-08 0.0000000000000000e+00  9.7021897187089725e-04 -1.0403619759950800e-08 0.0000000000000000e+00  9.7021897186148074e-04 8.0469506246530627e-09 0.0000000000000000e+00  1.0134020716185571e-03 -9.1170552235118538e-09 0.0000000000000000e+00  1.0134020716224966e-03 -9.1170500789725453e-09 0.0000000000000000e+00  1.0134020716193368e-03 -9.1170626303474153e-09 0.0000000000000000e+00  1.0134020716360188e-03 -9.1170439872742190e-09 0.0000000000000000e+00  1.0134020716373181e-03 -9.1170451409737507e-09 0.0000000000000000e+00  1.0134020716330661e-03 -9.1170671031150577e-09 0.0000000000000000e+00  1.0134020716114711e-03 -9.1170633695564565e-09 0.0000000000000000e+00  1.0134020716360036e-03 -9.1170512025312567e-09 0.0000000000000000e+00  1.0134020716165244e-03 -9.1170438732161505e-09 0.0000000000000000e+00  1.0134020716378129e-03 -9.1170264422809830e-09 0.0000000000000000e+00  1.0134020716316544e-03 -9.1170671246906809e-09 0.0000000000000000e+00  1.0134020716144475e-03 -9.1170670599638112e-09 0.0000000000000000e+00  1.0134020716226167e-03 -9.1170647192797410e-09 0.0000000000000000e+00  1.0134020716380931e-03 -9.1170444916450696e-09 0.0000000000000000e+00  1.0134020716155304e-03 -9.1170413344483434e-09 0.0000000000000000e+00  1.0134020716303048e-03 -9.1170568388646706e-09 0.0000000000000000e+00  1.0134020716258598e-03 -9.1170635215616011e-09 0.0000000000000000e+00  1.0134020716121863e-03 -9.1170411674812088e-09 0.0000000000000000e+00  1.0134020716401058e-03 -9.1170381035258694e-09 0.0000000000000000e+00  1.0134020716342147e-03 -9.1170323782878773e-09 0.0000000000000000e+00  1.0134020716294893e-03 -9.1170477659356305e-09 0.0000000000000000e+00  1.0134020716420528e-03 -9.1170649237602708e-09 0.0000000000000000e+00  1.0134020716198373e-03 -9.1170592943657508e-09 0.0000000000000000e+00  1.0134020716191959e-03 -9.1170568763780657e-09 0.0000000000000000e+00  1.0134020716402467e-03 -9.1170545425244692e-09 0.0000000000000000e+00  1.0134020716174674e-03 -9.1170576923486207e-09 0.0000000000000000e+00  1.0134020716262319e-03 -9.1170338977972221e-09 0.0000000000000000e+00  1.0134020716349263e-03 -9.1170596904248044e-09 0.0000000000000000e+00  1.0134020716184577e-03 -9.1170546867233582e-09 0.0000000000000000e+00  1.0134020716374419e-03 -9.1170549189594635e-09 0.0000000000000000e+00  1.0134020716185575e-03 8.0787788474309926e-09 0.0000000000000000e+00  8.8135882058582753e-04 -6.0266810324779291e-09 0.0000000000000000e+00  8.8135882058243767e-04 -6.0266682665394491e-09 0.0000000000000000e+00  8.8135882058202567e-04 -6.0266850479290951e-09 0.0000000000000000e+00  8.8135882057339759e-04 -6.0266817160673988e-09 0.0000000000000000e+00  8.8135882060197531e-04 -6.0266761689638237e-09 0.0000000000000000e+00  8.8135882057709602e-04 -6.0266868728581918e-09 0.0000000000000000e+00  8.8135882059024186e-04 -6.0266695761472533e-09 0.0000000000000000e+00  8.8135882059345641e-04 -6.0266872427879731e-09 0.0000000000000000e+00  8.8135882059431575e-04 -6.0266803661272739e-09 0.0000000000000000e+00  8.8135882057767672e-04 -6.0266895762078887e-09 0.0000000000000000e+00  8.8135882058763360e-04 -6.0266968587938813e-09 0.0000000000000000e+00  8.8135882057633838e-04 -6.0266984744719587e-09 0.0000000000000000e+00  8.8135882057036236e-04 -6.0266801781266172e-09 0.0000000000000000e+00  8.8135882059042184e-04 -6.0266722711485934e-09 0.0000000000000000e+00  8.8135882056850979e-04 -6.0267133824686708e-09 0.0000000000000000e+00  8.8135882058641875e-04 -6.0266805288660200e-09 0.0000000000000000e+00  8.8135882058303864e-04 -6.0266778789674902e-09 0.0000000000000000e+00  8.8135882059162032e-04 -6.0266666495603291e-09 0.0000000000000000e+00  8.8135882058964794e-04 -6.0266811842662332e-09 0.0000000000000000e+00  8.8135882060285645e-04 -6.0266914301936036e-09 0.0000000000000000e+00  8.8135882057444851e-04 -6.0266720666680637e-09 0.0000000000000000e+00  8.8135882058796504e-04 -6.0266748022185651e-09 0.0000000000000000e+00  8.8135882057997566e-04 -6.0266664799911093e-09 0.0000000000000000e+00  8.8135882058573299e-04 -6.0266819049354173e-09 0.0000000000000000e+00  8.8135882059806514e-04 -6.0266646627598480e-09 0.0000000000000000e+00  8.8135882058792796e-04 -6.0266747819439845e-09 0.0000000000000000e+00  8.8135882058725922e-04 -6.0266911390853203e-09 0.0000000000000000e+00  8.8135882058850183e-04 -6.0266836525608991e-09 0.0000000000000000e+00  8.8135882060344061e-04 -6.0266843957814883e-09 0.0000000000000000e+00  8.8135882058061772e-04 -6.0266980920738525e-09 0.0000000000000000e+00  8.8135882058582797e-04 6.6270175911371859e-09 0.0000000000000000e+00  5.9692060856568669e-04 -1.9034446432225627e-09 0.0000000000000000e+00  5.9692060855793541e-04 -1.9034317501071679e-09 0.0000000000000000e+00  5.9692060856472154e-04 -1.9034342405195581e-09 0.0000000000000000e+00  5.9692060857544950e-04 -1.9034389589674128e-09 0.0000000000000000e+00  5.9692060854896244e-04 -1.9034318973960331e-09 0.0000000000000000e+00  5.9692060856899611e-04 -1.9034065455508439e-09 0.0000000000000000e+00  5.9692060856877667e-04 -1.9034281740289323e-09 0.0000000000000000e+00  5.9692060858371784e-04 -1.9034225652342536e-09 0.0000000000000000e+00  5.9692060857078537e-04 -1.9034343601070577e-09 0.0000000000000000e+00  5.9692060857045913e-04 -1.9034169124209667e-09 0.0000000000000000e+00  5.9692060856670107e-04 -1.9034051981585941e-09 0.0000000000000000e+00  5.9692060856164110e-04 -1.9034086732976074e-09 0.0000000000000000e+00  5.9692060857645694e-04 -1.9034222330347079e-09 0.0000000000000000e+00  5.9692060856350896e-04 -1.9034385263165358e-09 0.0000000000000000e+00  5.9692060856431756e-04 -1.9034402992039283e-09 0.0000000000000000e+00  5.9692060855065792e-04 -1.9034441308828261e-09 0.0000000000000000e+00  5.9692060857215808e-04 -1.9034106186273554e-09 0.0000000000000000e+00  5.9692060858238254e-04 -1.9034178903713263e-09 0.0000000000000000e+00  5.9692060856748907e-04 -1.9034302391088102e-09 0.0000000000000000e+00  5.9692060856764411e-04 -1.9034461066786551e-09 0.0000000000000000e+00  5.9692060856393419e-04 -1.9034532713576614e-09 0.0000000000000000e+00  5.9692060855871473e-04 -1.9034302093474606e-09 0.0000000000000000e+00  5.9692060857114804e-04 -1.9034171164136054e-09 0.0000000000000000e+00  5.9692060858132024e-04 -1.9034164127663955e-09 0.0000000000000000e+00  5.9692060855823432e-04 -1.9034411447732026e-09 0.0000000000000000e+00  5.9692060855833558e-04 -1.9034391735852328e-09 0.0000000000000000e+00  5.9692060856623638e-04 -1.9034133835597357e-09 0.0000000000000000e+00  5.9692060856973467e-04 -1.9034429205879409e-09 0.0000000000000000e+00  5.9692060856573483e-04 -1.9034515082280885e-09 0.0000000000000000e+00  5.9692060856317026e-04 -1.9034279194582622e-09 0.0000000000000000e+00  5.9692060856568691e-04 3.9895566483036393e-09 0.0000000000000000e+00  2.0926929376408550e-04 2.2683627799328704e-09 0.0000000000000000e+00  2.0926929376970891e-04 2.2683761063903209e-09 0.0000000000000000e+00  2.0926929376674107e-04 2.2683844219092758e-09 0.0000000000000000e+00  2.0926929376897290e-04 2.2683810193033878e-09 0.0000000000000000e+00  2.0926929374936301e-04 2.2683585899929172e-09 0.0000000000000000e+00  2.0926929375093785e-04 2.2683778851324051e-09 0.0000000000000000e+00  2.0926929377658313e-04 2.2684038562061125e-09 0.0000000000000000e+00  2.0926929376241239e-04 2.2683942711948339e-09 0.0000000000000000e+00  2.0926929378739376e-04 2.2683875403051168e-09 0.0000000000000000e+00  2.0926929377141769e-04 2.2683606307595614e-09 0.0000000000000000e+00  2.0926929375880899e-04 2.2683708843441097e-09 0.0000000000000000e+00  2.0926929375742319e-04 2.2683712568217660e-09 0.0000000000000000e+00  2.0926929376303597e-04 2.2683634563530532e-09 0.0000000000000000e+00  2.0926929375307646e-04 2.2683712699270598e-09 0.0000000000000000e+00  2.0926929376692441e-04 2.2683763853555399e-09 0.0000000000000000e+00  2.0926929375761924e-04 2.2683764620899487e-09 0.0000000000000000e+00  2.0926929376144314e-04 2.2683779284462819e-09 0.0000000000000000e+00  2.0926929377832631e-04 2.2683921555233721e-09 0.0000000000000000e+00  2.0926929376606339e-04 2.2683932866579461e-09 0.0000000000000000e+00  2.0926929377663008e-04 2.2683744655180955e-09 0.0000000000000000e+00  2.0926929375868385e-04 2.2683892053414981e-09 0.0000000000000000e+00  2.0926929377536489e-04 2.2683868068423471e-09 0.0000000000000000e+00  2.0926929376386687e-04 2.2683811602632227e-09 0.0000000000000000e+00  2.0926929376592499e-04 2.2683837257972709e-09 0.0000000000000000e+00  2.0926929376147895e-04 2.2683868291362543e-09 0.0000000000000000e+00  2.0926929377935912e-04 2.2683834224646081e-09 0.0000000000000000e+00  2.0926929375796280e-04 2.2683622108215975e-09 0.0000000000000000e+00  2.0926929376442662e-04 2.2683874925460111e-09 0.0000000000000000e+00  2.0926929377062113e-04 2.2683744005608329e-09 0.0000000000000000e+00  2.0926929374152369e-04 2.2683766889863583e-09 0.0000000000000000e+00  2.0926929376408553e-04 7.0851490494879121e-10 0.0000000000000000e+00  -2.1456672580870656e-04 5.6403090586206080e-09 0.0000000000000000e+00  -2.1456672580658797e-04 5.6403044546645027e-09 0.0000000000000000e+00  -2.1456672580724516e-04 5.6402882067023256e-09 0.0000000000000000e+00  -2.1456672581388975e-04 5.6402954932998663e-09 0.0000000000000000e+00  -2.1456672579377335e-04 5.6402974281670633e-09 0.0000000000000000e+00  -2.1456672582123067e-04 5.6402808731588309e-09 0.0000000000000000e+00  -2.1456672581022227e-04 5.6402907257918633e-09 0.0000000000000000e+00  -2.1456672580083368e-04 5.6402992326589491e-09 0.0000000000000000e+00  -2.1456672581296877e-04 5.6402981285616667e-09 0.0000000000000000e+00  -2.1456672579418915e-04 5.6403001516287105e-09 0.0000000000000000e+00  -2.1456672580552161e-04 5.6402746781902477e-09 0.0000000000000000e+00  -2.1456672583023139e-04 5.6403051173288705e-09 0.0000000000000000e+00  -2.1456672578317858e-04 5.6402933593189403e-09 0.0000000000000000e+00  -2.1456672582362860e-04 5.6402814405760379e-09 0.0000000000000000e+00  -2.1456672581440447e-04 5.6402898415165714e-09 0.0000000000000000e+00  -2.1456672580867739e-04 5.6402814461596791e-09 0.0000000000000000e+00  -2.1456672579222061e-04 5.6402899028824144e-09 0.0000000000000000e+00  -2.1456672579890347e-04 5.6403106977716624e-09 0.0000000000000000e+00  -2.1456672578666234e-04 5.6402880384883586e-09 0.0000000000000000e+00  -2.1456672580333954e-04 5.6402872187773061e-09 0.0000000000000000e+00  -2.1456672582034975e-04 5.6402768204653203e-09 0.0000000000000000e+00  -2.1456672579778436e-04 5.6402887762337268e-09 0.0000000000000000e+00  -2.1456672582717789e-04 5.6402870860709602e-09 0.0000000000000000e+00  -2.1456672580122291e-04 5.6403212259710685e-09 0.0000000000000000e+00  -2.1456672579464581e-04 5.6403122909525448e-09 0.0000000000000000e+00  -2.1456672579457995e-04 5.6403061879785159e-09 0.0000000000000000e+00  -2.1456672581184326e-04 5.6402979876695944e-09 0.0000000000000000e+00  -2.1456672582139845e-04 5.6403021143599033e-09 0.0000000000000000e+00  -2.1456672578947493e-04 5.6402874542660179e-09 0.0000000000000000e+00  -2.1456672581736608e-04 5.6402758730894620e-09 0.0000000000000000e+00  -2.1456672580870661e-04 -2.5797621889859405e-09 0.0000000000000000e+00  -6.0130230704724371e-04 7.7305914489940106e-09 0.0000000000000000e+00  -6.0130230704334849e-04 7.7305933711760422e-09 0.00