<?xml version="1.0"?>
<VTKFile type="UnstructuredGrid"  version="0.1"  >
<UnstructuredGrid>
<Piece  NumberOfPoints="961" NumberOfCells="1800">
<Points>
<DataArray  type="Float64"  NumberOfComponents="3"  format="ascii">0 0 0  0.03333333333333333 0 0  0.06666666666666667 0 0  0.1 0 0  0.1333333333333333 0 0  0.1666666666666667 0 0  0.2 0 0  0.2333333333333333 0 0  0.2666666666666667 0 0  0.3 0 0  0.3333333333333333 0 0  0.3666666666666666 0 0  0.4 0 0  0.4333333333333333 0 0  0.4666666666666667 0 0  0.5 0 0  0.5333333333333333 0 0  0.5666666666666667 0 0  0.6 0 0  0.6333333333333333 0 0  0.6666666666666666 0 0  0.7 0 0  0.7333333333333333 0 0  0.7666666666666667 0 0  0.8 0 0  0.8333333333333334 0 0  0.8666666666666667 0 0  0.9 0 0  0.9333333333333333 0 0  0.9666666666666667 0 0  1 0 0  0 0.03333333333333333 0  0.03333333333333333 0.03333333333333333 0  0.06666666666666667 0.03333333333333333 0  0.1 0.03333333333333333 0  0.1333333333333333 0.03333333333333333 0  0.1666666666666667 0.03333333333333333 0  0.2 0.03333333333333333 0  0.2333333333333333 0.03333333333333333 0  0.2666666666666667 0.03333333333333333 0  0.3 0.03333333333333333 0  0.3333333333333333 0.03333333333333333 0  0.3666666666666666 0.03333333333333333 0  0.4 0.03333333333333333 0  0.4333333333333333 0.03333333333333333 0  0.4666666666666667 0.03333333333333333 0  0.5 0.03333333333333333 0  0.5333333333333333 0.03333333333333333 0  0.5666666666666667 0.03333333333333333 0  0.6 0.03333333333333333 0  0.6333333333333333 0.03333333333333333 0  0.6666666666666666 0.03333333333333333 0  0.7 0.03333333333333333 0  0.7333333333333333 0.03333333333333333 0  0.7666666666666667 0.03333333333333333 0  0.8 0.03333333333333333 0  0.8333333333333334 0.03333333333333333 0  0.8666666666666667 0.03333333333333333 0  0.9 0.03333333333333333 0  0.9333333333333333 0.03333333333333333 0  0.9666666666666667 0.03333333333333333 0  1 0.03333333333333333 0  0 0.06666666666666667 0  0.03333333333333333 0.06666666666666667 0  0.06666666666666667 0.06666666666666667 0  0.1 0.06666666666666667 0  0.1333333333333333 0.06666666666666667 0  0.1666666666666667 0.06666666666666667 0  0.2 0.06666666666666667 0  0.2333333333333333 0.06666666666666667 0  0.2666666666666667 0.06666666666666667 0  0.3 0.06666666666666667 0  0.3333333333333333 0.06666666666666667 0  0.3666666666666666 0.06666666666666667 0  0.4 0.06666666666666667 0  0.4333333333333333 0.06666666666666667 0  0.4666666666666667 0.06666666666666667 0  0.5 0.06666666666666667 0  0.5333333333333333 0.06666666666666667 0  0.5666666666666667 0.06666666666666667 0  0.6 0.06666666666666667 0  0.6333333333333333 0.06666666666666667 0  0.6666666666666666 0.06666666666666667 0  0.7 0.06666666666666667 0  0.7333333333333333 0.06666666666666667 0  0.7666666666666667 0.06666666666666667 0  0.8 0.06666666666666667 0  0.8333333333333334 0.06666666666666667 0  0.8666666666666667 0.06666666666666667 0  0.9 0.06666666666666667 0  0.9333333333333333 0.06666666666666667 0  0.9666666666666667 0.06666666666666667 0  1 0.06666666666666667 0  0 0.1 0  0.03333333333333333 0.1 0  0.06666666666666667 0.1 0  0.1 0.1 0  0.1333333333333333 0.1 0  0.1666666666666667 0.1 0  0.2 0.1 0  0.2333333333333333 0.1 0  0.2666666666666667 0.1 0  0.3 0.1 0  0.3333333333333333 0.1 0  0.3666666666666666 0.1 0  0.4 0.1 0  0.4333333333333333 0.1 0  0.4666666666666667 0.1 0  0.5 0.1 0  0.5333333333333333 0.1 0  0.5666666666666667 0.1 0  0.6 0.1 0  0.6333333333333333 0.1 0  0.6666666666666666 0.1 0  0.7 0.1 0  0.7333333333333333 0.1 0  0.7666666666666667 0.1 0  0.8 0.1 0  0.8333333333333334 0.1 0  0.8666666666666667 0.1 0  0.9 0.1 0  0.9333333333333333 0.1 0  0.9666666666666667 0.1 0  1 0.1 0  0 0.1333333333333333 0  0.03333333333333333 0.1333333333333333 0  0.06666666666666667 0.1333333333333333 0  0.1 0.1333333333333333 0  0.1333333333333333 0.1333333333333333 0  0.1666666666666667 0.1333333333333333 0  0.2 0.1333333333333333 0  0.2333333333333333 0.1333333333333333 0  0.2666666666666667 0.1333333333333333 0  0.3 0.1333333333333333 0  0.3333333333333333 0.1333333333333333 0  0.3666666666666666 0.1333333333333333 0  0.4 0.1333333333333333 0  0.4333333333333333 0.1333333333333333 0  0.4666666666666667 0.1333333333333333 0  0.5 0.1333333333333333 0  0.5333333333333333 0.1333333333333333 0  0.5666666666666667 0.1333333333333333 0  0.6 0.1333333333333333 0  0.6333333333333333 0.1333333333333333 0  0.6666666666666666 0.1333333333333333 0  0.7 0.1333333333333333 0  0.7333333333333333 0.1333333333333333 0  0.7666666666666667 0.1333333333333333 0  0.8 0.1333333333333333 0  0.8333333333333334 0.1333333333333333 0  0.8666666666666667 0.1333333333333333 0  0.9 0.1333333333333333 0  0.9333333333333333 0.1333333333333333 0  0.9666666666666667 0.1333333333333333 0  1 0.1333333333333333 0  0 0.1666666666666667 0  0.03333333333333333 0.1666666666666667 0  0.06666666666666667 0.1666666666666667 0  0.1 0.1666666666666667 0  0.1333333333333333 0.1666666666666667 0  0.1666666666666667 0.1666666666666667 0  0.2 0.1666666666666667 0  0.2333333333333333 0.1666666666666667 0  0.2666666666666667 0.1666666666666667 0  0.3 0.1666666666666667 0  0.3333333333333333 0.1666666666666667 0  0.3666666666666666 0.1666666666666667 0  0.4 0.1666666666666667 0  0.4333333333333333 0.1666666666666667 0  0.4666666666666667 0.1666666666666667 0  0.5 0.1666666666666667 0  0.5333333333333333 0.1666666666666667 0  0.5666666666666667 0.1666666666666667 0  0.6 0.1666666666666667 0  0.6333333333333333 0.1666666666666667 0  0.6666666666666666 0.1666666666666667 0  0.7 0.1666666666666667 0  0.7333333333333333 0.1666666666666667 0  0.7666666666666667 0.1666666666666667 0  0.8 0.1666666666666667 0  0.8333333333333334 0.1666666666666667 0  0.8666666666666667 0.1666666666666667 0  0.9 0.1666666666666667 0  0.9333333333333333 0.1666666666666667 0  0.9666666666666667 0.1666666666666667 0  1 0.1666666666666667 0  0 0.2 0  0.03333333333333333 0.2 0  0.06666666666666667 0.2 0  0.1 0.2 0  0.1333333333333333 0.2 0  0.1666666666666667 0.2 0  0.2 0.2 0  0.2333333333333333 0.2 0  0.2666666666666667 0.2 0  0.3 0.2 0  0.3333333333333333 0.2 0  0.3666666666666666 0.2 0  0.4 0.2 0  0.4333333333333333 0.2 0  0.4666666666666667 0.2 0  0.5 0.2 0  0.5333333333333333 0.2 0  0.5666666666666667 0.2 0  0.6 0.2 0  0.6333333333333333 0.2 0  0.6666666666666666 0.2 0  0.7 0.2 0  0.7333333333333333 0.2 0  0.7666666666666667 0.2 0  0.8 0.2 0  0.8333333333333334 0.2 0  0.8666666666666667 0.2 0  0.9 0.2 0  0.9333333333333333 0.2 0  0.9666666666666667 0.2 0  1 0.2 0  0 0.2333333333333333 0  0.03333333333333333 0.2333333333333333 0  0.06666666666666667 0.2333333333333333 0  0.1 0.2333333333333333 0  0.1333333333333333 0.2333333333333333 0  0.1666666666666667 0.2333333333333333 0  0.2 0.2333333333333333 0  0.2333333333333333 0.2333333333333333 0  0.2666666666666667 0.2333333333333333 0  0.3 0.2333333333333333 0  0.3333333333333333 0.2333333333333333 0  0.3666666666666666 0.2333333333333333 0  0.4 0.2333333333333333 0  0.4333333333333333 0.2333333333333333 0  0.4666666666666667 0.2333333333333333 0  0.5 0.2333333333333333 0  0.5333333333333333 0.2333333333333333 0  0.5666666666666667 0.2333333333333333 0  0.6 0.2333333333333333 0  0.6333333333333333 0.2333333333333333 0  0.6666666666666666 0.2333333333333333 0  0.7 0.2333333333333333 0  0.7333333333333333 0.2333333333333333 0  0.7666666666666667 0.2333333333333333 0  0.8 0.2333333333333333 0  0.8333333333333334 0.2333333333333333 0  0.8666666666666667 0.2333333333333333 0  0.9 0.2333333333333333 0  0.9333333333333333 0.2333333333333333 0  0.9666666666666667 0.2333333333333333 0  1 0.2333333333333333 0  0 0.2666666666666667 0  0.03333333333333333 0.2666666666666667 0  0.06666666666666667 0.2666666666666667 0  0.1 0.2666666666666667 0  0.1333333333333333 0.2666666666666667 0  0.1666666666666667 0.2666666666666667 0  0.2 0.2666666666666667 0  0.2333333333333333 0.2666666666666667 0  0.2666666666666667 0.2666666666666667 0  0.3 0.2666666666666667 0  0.3333333333333333 0.2666666666666667 0  0.3666666666666666 0.2666666666666667 0  0.4 0.2666666666666667 0  0.4333333333333333 0.2666666666666667 0  0.4666666666666667 0.2666666666666667 0  0.5 0.2666666666666667 0  0.5333333333333333 0.2666666666666667 0  0.5666666666666667 0.2666666666666667 0  0.6 0.2666666666666667 0  0.6333333333333333 0.2666666666666667 0  0.6666666666666666 0.2666666666666667 0  0.7 0.2666666666666667 0  0.7333333333333333 0.2666666666666667 0  0.7666666666666667 0.2666666666666667 0  0.8 0.2666666666666667 0  0.8333333333333334 0.2666666666666667 0  0.8666666666666667 0.2666666666666667 0  0.9 0.2666666666666667 0  0.9333333333333333 0.2666666666666667 0  0.9666666666666667 0.2666666666666667 0  1 0.2666666666666667 0  0 0.3 0  0.03333333333333333 0.3 0  0.06666666666666667 0.3 0  0.1 0.3 0  0.1333333333333333 0.3 0  0.1666666666666667 0.3 0  0.2 0.3 0  0.2333333333333333 0.3 0  0.2666666666666667 0.3 0  0.3 0.3 0  0.3333333333333333 0.3 0  0.3666666666666666 0.3 0  0.4 0.3 0  0.4333333333333333 0.3 0  0.4666666666666667 0.3 0  0.5 0.3 0  0.5333333333333333 0.3 0  0.5666666666666667 0.3 0  0.6 0.3 0  0.6333333333333333 0.3 0  0.6666666666666666 0.3 0  0.7 0.3 0  0.7333333333333333 0.3 0  0.7666666666666667 0.3 0  0.8 0.3 0  0.8333333333333334 0.3 0  0.8666666666666667 0.3 0  0.9 0.3 0  0.9333333333333333 0.3 0  0.9666666666666667 0.3 0  1 0.3 0  0 0.3333333333333333 0  0.03333333333333333 0.3333333333333333 0  0.06666666666666667 0.3333333333333333 0  0.1 0.3333333333333333 0  0.1333333333333333 0.3333333333333333 0  0.1666666666666667 0.3333333333333333 0  0.2 0.3333333333333333 0  0.2333333333333333 0.3333333333333333 0  0.2666666666666667 0.3333333333333333 0  0.3 0.3333333333333333 0  0.3333333333333333 0.3333333333333333 0  0.3666666666666666 0.3333333333333333 0  0.4 0.3333333333333333 0  0.4333333333333333 0.3333333333333333 0  0.4666666666666667 0.3333333333333333 0  0.5 0.3333333333333333 0  0.5333333333333333 0.33333333333333
[...]
<PointData  Vectors="u_f"> 
<DataArray  type="Float64"  Name="u_f"  NumberOfComponents="3" format="ascii">2.7095536206616744e-06 2.9586944669431070e-09 0.0000000000000000e+00  2.7095536330737293e-06 2.9586991457633723e-09 0.0000000000000000e+00  2.7095536219046579e-06 2.9586996920386369e-09 0.0000000000000000e+00  2.7095536325966261e-06 2.9587120877220749e-09 0.0000000000000000e+00  2.7095536295184677e-06 2.9587092144236875e-09 0.0000000000000000e+00  2.7095536285398126e-06 2.9587071357912824e-09 0.0000000000000000e+00  2.7095536256439086e-06 2.9586954047779862e-09 0.0000000000000000e+00  2.7095536164648362e-06 2.9586937666569238e-09 0.0000000000000000e+00  2.7095536285348253e-06 2.9586974548416640e-09 0.0000000000000000e+00  2.7095536247040137e-06 2.9587013904955502e-09 0.0000000000000000e+00  2.7095536277915505e-06 2.9587074615398251e-09 0.0000000000000000e+00  2.7095536157998950e-06 2.9586555136190337e-09 0.0000000000000000e+00  2.7095535926867104e-06 2.9586845205265867e-09 0.0000000000000000e+00  2.7095536286767473e-06 2.9586986151006189e-09 0.0000000000000000e+00  2.7095536308021631e-06 2.9587088011800294e-09 0.0000000000000000e+00  2.7095536225033002e-06 2.9586923011408472e-09 0.0000000000000000e+00  2.7095536238331826e-06 2.9586954229925827e-09 0.0000000000000000e+00  2.7095536289422142e-06 2.9587238046949529e-09 0.0000000000000000e+00  2.7095536392329192e-06 2.9587038680059345e-09 0.0000000000000000e+00  2.7095536204344256e-06 2.9587034491786353e-09 0.0000000000000000e+00  2.7095536202719037e-06 2.9587052039056413e-09 0.0000000000000000e+00  2.7095536267151546e-06 2.9586867973511490e-09 0.0000000000000000e+00  2.7095536433706683e-06 2.9587607753385134e-09 0.0000000000000000e+00  2.7095536583658891e-06 2.9587105732542703e-09 0.0000000000000000e+00  2.7095536236147700e-06 2.9587084560784779e-09 0.0000000000000000e+00  2.7095536317660188e-06 2.9587074763391848e-09 0.0000000000000000e+00  2.7095536229853365e-06 2.9587031023423603e-09 0.0000000000000000e+00  2.7095536260485871e-06 2.9587009601214978e-09 0.0000000000000000e+00  2.7095536291629578e-06 2.9586995583565090e-09 0.0000000000000000e+00  2.7095536253511198e-06 2.9586940707756332e-09 0.0000000000000000e+00  2.7095536206617286e-06 -7.0789013243367981e-10 0.0000000000000000e+00  4.1705316482764873e-04 4.8096194402375350e-09 0.0000000000000000e+00  4.1705316483013654e-04 4.8096047910398815e-09 0.0000000000000000e+00  4.1705316483051503e-04 4.8096004000210829e-09 0.0000000000000000e+00  4.1705316483604143e-04 4.8096079246010004e-09 0.0000000000000000e+00  4.1705316483646383e-04 4.8095985258692076e-09 0.0000000000000000e+00  4.1705316482451278e-04 4.8096077465750037e-09 0.0000000000000000e+00  4.1705316483337245e-04 4.8096267394118208e-09 0.0000000000000000e+00  4.1705316483943411e-04 4.8096209232092665e-09 0.0000000000000000e+00  4.1705316483218438e-04 4.8096138425017185e-09 0.0000000000000000e+00  4.1705316484515729e-04 4.8096019211567309e-09 0.0000000000000000e+00  4.1705316482435948e-04 4.8095955513605473e-09 0.0000000000000000e+00  4.1705316479568320e-04 4.8095695479640627e-09 0.0000000000000000e+00  4.1705316481256683e-04 4.8096009929712510e-09 0.0000000000000000e+00  4.1705316483610214e-04 4.8096171304532268e-09 0.0000000000000000e+00  4.1705316483596868e-04 4.8096059413783865e-09 0.0000000000000000e+00  4.1705316482679449e-04 4.8096104392995193e-09 0.0000000000000000e+00  4.1705316483411133e-04 4.8096201605814584e-09 0.0000000000000000e+00  4.1705316483846657e-04 4.8096142820372792e-09 0.0000000000000000e+00  4.1705316483030773e-04 4.8096140371160084e-09 0.0000000000000000e+00  4.1705316483786386e-04 4.8096129168099036e-09 0.0000000000000000e+00  4.1705316482971771e-04 4.8096055712317648e-09 0.0000000000000000e+00  4.1705316483377295e-04 4.8096081160711041e-09 0.0000000000000000e+00  4.1705316486356791e-04 4.8096488195143242e-09 0.0000000000000000e+00  4.1705316486026120e-04 4.8096099447949084e-09 0.0000000000000000e+00  4.1705316482025686e-04 4.8096159822831261e-09 0.0000000000000000e+00  4.1705316484685450e-04 4.8096155517464434e-09 0.0000000000000000e+00  4.1705316483250346e-04 4.8095984343625442e-09 0.0000000000000000e+00  4.1705316482652268e-04 4.8096213442049701e-09 0.0000000000000000e+00  4.1705316483772801e-04 4.8096071635994955e-09 0.0000000000000000e+00  4.1705316483644215e-04 4.8096153325207641e-09 0.0000000000000000e+00  4.1705316482764895e-04 -3.1695743120209116e-09 0.0000000000000000e+00  7.5928446769980092e-04 5.7257841464030193e-09 0.0000000000000000e+00  7.5928446769730248e-04 5.7257817615919207e-09 0.0000000000000000e+00  7.5928446768930974e-04 5.7257901313074316e-09 0.0000000000000000e+00  7.5928446769470462e-04 5.7257990542913112e-09 0.0000000000000000e+00  7.5928446769988516e-04 5.7257854165458644e-09 0.0000000000000000e+00  7.5928446769967688e-04 5.7257959215975540e-09 0.0000000000000000e+00  7.5928446769888758e-04 5.7257856619008160e-09 0.0000000000000000e+00  7.5928446769623161e-04 5.7257878271609747e-09 0.0000000000000000e+00  7.5928446770597003e-04 5.7257857255434835e-09 0.0000000000000000e+00  7.5928446769085809e-04 5.7258001449986967e-09 0.0000000000000000e+00  7.5928446770453801e-04 5.7257978818350819e-09 0.0000000000000000e+00  7.5928446765239710e-04 5.7257396248334286e-09 0.0000000000000000e+00  7.5928446767757954e-04 5.7257908757206433e-09 0.0000000000000000e+00  7.5928446769400260e-04 5.7257926520774827e-09 0.0000000000000000e+00  7.5928446769688365e-04 5.7258022357741661e-09 0.0000000000000000e+00  7.5928446771145967e-04 5.7257910779243484e-09 0.0000000000000000e+00  7.5928446769208302e-04 5.7257731662539377e-09 0.0000000000000000e+00  7.5928446768760191e-04 5.7257784993360039e-09 0.0000000000000000e+00  7.5928446769545858e-04 5.7257725287430603e-09 0.0000000000000000e+00  7.5928446769255129e-04 5.7257792055852991e-09 0.0000000000000000e+00  7.5928446769493567e-04 5.7257873865412118e-09 0.0000000000000000e+00  7.5928446769017201e-04 5.7257723557043935e-09 0.0000000000000000e+00  7.5928446772512918e-04 5.7258306781918580e-09 0.0000000000000000e+00  7.5928446771839975e-04 5.7257985915538240e-09 0.0000000000000000e+00  7.5928446769260257e-04 5.7257995386044216e-09 0.0000000000000000e+00  7.5928446770984605e-04 5.7257869553540078e-09 0.0000000000000000e+00  7.5928446769462103e-04 5.7258060915223521e-09 0.0000000000000000e+00  7.5928446771468061e-04 5.7258003054606182e-09 0.0000000000000000e+00  7.5928446768896843e-04 5.7257870131419836e-09 0.0000000000000000e+00  7.5928446768867071e-04 5.7257863118800184e-09 0.0000000000000000e+00  7.5928446769980135e-04 -5.0266699253683431e-09 0.0000000000000000e+00  9.7022862165399722e-04 5.7208077576358096e-09 0.0000000000000000e+00  9.7022862166399205e-04 5.7208006498232072e-09 0.0000000000000000e+00  9.7022862166724682e-04 5.7207833904088234e-09 0.0000000000000000e+00  9.7022862166200644e-04 5.7208055751368364e-09 0.0000000000000000e+00  9.7022862167771219e-04 5.7208136407336380e-09 0.0000000000000000e+00  9.7022862167337257e-04 5.7208132207137163e-09 0.0000000000000000e+00  9.7022862167708791e-04 5.7208002076855613e-09 0.0000000000000000e+00  9.7022862166755560e-04 5.7208074620822974e-09 0.0000000000000000e+00  9.7022862166694758e-04 5.7207924519537406e-09 0.0000000000000000e+00  9.7022862166549519e-04 5.7207993717656863e-09 0.0000000000000000e+00  9.7022862168040145e-04 5.7208054951227161e-09 0.0000000000000000e+00  9.7022862165622829e-04 5.7208030840739249e-09 0.0000000000000000e+00  9.7022862167647273e-04 5.7207914880980093e-09 0.0000000000000000e+00  9.7022862166118310e-04 5.7207991536242092e-09 0.0000000000000000e+00  9.7022862166459920e-04 5.7207942757986352e-09 0.0000000000000000e+00  9.7022862166996448e-04 5.7208004165028997e-09 0.0000000000000000e+00  9.7022862166672988e-04 5.7208061092148266e-09 0.0000000000000000e+00  9.7022862166128024e-04 5.7208273231482143e-09 0.0000000000000000e+00  9.7022862166986886e-04 5.7208091586418569e-09 0.0000000000000000e+00  9.7022862167202273e-04 5.7207854675233455e-09 0.0000000000000000e+00  9.7022862166007136e-04 5.7208002484515630e-09 0.0000000000000000e+00  9.7022862167150470e-04 5.7208058873870621e-09 0.0000000000000000e+00  9.7022862167900174e-04 5.7207896670720404e-09 0.0000000000000000e+00  9.7022862166686020e-04 5.7208090398132988e-09 0.0000000000000000e+00  9.7022862166857128e-04 5.7207949187305235e-09 0.0000000000000000e+00  9.7022862167255898e-04 5.7208058023856118e-09 0.0000000000000000e+00  9.7022862165580545e-04 5.7207882107716823e-09 0.0000000000000000e+00  9.7022862168298315e-04 5.7207840862497777e-09 0.0000000000000000e+00  9.7022862166325002e-04 5.7207748744344394e-09 0.0000000000000000e+00  9.7022862165669515e-04 5.7207744574502839e-09 0.0000000000000000e+00  9.7022862165399744e-04 -6.0097100365577897e-09 0.0000000000000000e+00  1.0134114962820303e-03 4.8960346837965268e-09 0.0000000000000000e+00  1.0134114962773388e-03 4.8960413224748492e-09 0.0000000000000000e+00  1.0134114962867030e-03 4.8960443936943432e-09 0.0000000000000000e+00  1.0134114962813121e-03 4.8960295883715768e-09 0.0000000000000000e+00  1.0134114962911151e-03 4.8960516960128153e-09 0.0000000000000000e+00  1.0134114962978124e-03 4.8960379257778630e-09 0.0000000000000000e+00  1.0134114962829829e-03 4.8960419568415403e-09 0.0000000000000000e+00  1.0134114962911151e-03 4.8960462256707540e-09 0.0000000000000000e+00  1.0134114962986728e-03 4.8960456149396703e-09 0.0000000000000000e+00  1.0134114962923788e-03 4.8960351021901452e-09 0.0000000000000000e+00  1.0134114962831403e-03 4.8960478755011999e-09 0.0000000000000000e+00  1.0134114963107430e-03 4.8960550229956018e-09 0.0000000000000000e+00  1.0134114962830109e-03 4.8960481820051541e-09 0.0000000000000000e+00  1.0134114962935122e-03 4.8960487977235678e-09 0.0000000000000000e+00  1.0134114962933767e-03 4.8960588158600618e-09 0.0000000000000000e+00  1.0134114962954807e-03 4.8960416413387081e-09 0.0000000000000000e+00  1.0134114962841458e-03 4.8960345750510489e-09 0.0000000000000000e+00  1.0134114962939938e-03 4.8960436682546696e-09 0.0000000000000000e+00  1.0134114962987246e-03 4.8960527528930931e-09 0.0000000000000000e+00  1.0134114962875316e-03 4.8960459537528492e-09 0.0000000000000000e+00  1.0134114962787231e-03 4.8960420814163699e-09 0.0000000000000000e+00  1.0134114963082815e-03 4.8960522551358757e-09 0.0000000000000000e+00  1.0134114962825934e-03 4.8960331370737076e-09 0.0000000000000000e+00  1.0134114962922376e-03 4.8960401895919992e-09 0.0000000000000000e+00  1.0134114962943052e-03 4.8960506612502619e-09 0.0000000000000000e+00  1.0134114962913668e-03 4.8960289930361639e-09 0.0000000000000000e+00  1.0134114962796646e-03 4.8960319987698467e-09 0.0000000000000000e+00  1.0134114962844876e-03 4.8960382251260828e-09 0.0000000000000000e+00  1.0134114962809348e-03 4.8960424795354077e-09 0.0000000000000000e+00  1.0134114962955427e-03 4.8960499998869367e-09 0.0000000000000000e+00  1.0134114962820307e-03 -5.9948036742716922e-09 0.0000000000000000e+00  8.8136635976019881e-04 3.3568697140572146e-09 0.0000000000000000e+00  8.8136635976300808e-04 3.3568670460525085e-09 0.0000000000000000e+00  8.8136635975966712e-04 3.3568726112622599e-09 0.0000000000000000e+00  8.8136635976053329e-04 3.3568761708064124e-09 0.0000000000000000e+00  8.8136635976247184e-04 3.3568544775472442e-09 0.0000000000000000e+00  8.8136635974914504e-04 3.3568561983929324e-09 0.0000000000000000e+00  8.8136635976953032e-04 3.3568586823001095e-09 0.0000000000000000e+00  8.8136635975049466e-04 3.3568657150859216e-09 0.0000000000000000e+00  8.8136635976525596e-04 3.3568529680125594e-09 0.0000000000000000e+00  8.8136635976457129e-04 3.3568588579408615e-09 0.0000000000000000e+00  8.8136635975992125e-04 3.3568552865789053e-09 0.0000000000000000e+00  8.8136635975904457e-04 3.3568504507119554e-09 0.0000000000000000e+00  8.8136635975414712e-04 3.3568455211699377e-09 0.0000000000000000e+00  8.8136635976654573e-04 3.3568472394135407e-09 0.0000000000000000e+00  8.8136635975664338e-04 3.3568561338829031e-09 0.0000000000000000e+00  8.8136635976331567e-04 3.3568445717340953e-09 0.0000000000000000e+00  8.8136635974733540e-04 3.3568607322011570e-09 0.0000000000000000e+00  8.8136635976743586e-04 3.3568495152623209e-09 0.0000000000000000e+00  8.8136635975021992e-04 3.3568344128681593e-09 0.0000000000000000e+00  8.8136635975328561e-04 3.3568520346229092e-09 0.0000000000000000e+00  8.8136635975930900e-04 3.3568557004188745e-09 0.0000000000000000e+00  8.8136635975616764e-04 3.3568558548092639e-09 0.0000000000000000e+00  8.8136635976346410e-04 3.3568614973226302e-09 0.0000000000000000e+00  8.8136635975077948e-04 3.3568518691736576e-09 0.0000000000000000e+00  8.8136635976987846e-04 3.3568402957491472e-09 0.0000000000000000e+00  8.8136635974722709e-04 3.3568470433897879e-09 0.0000000000000000e+00  8.8136635975840261e-04 3.3568373542002330e-09 0.0000000000000000e+00  8.8136635975157235e-04 3.3568576317082044e-09 0.0000000000000000e+00  8.8136635975844424e-04 3.3568354188993552e-09 0.0000000000000000e+00  8.8136635975479612e-04 3.3568518694989183e-09 0.0000000000000000e+00  8.8136635976019903e-04 -4.9944289866265039e-09 0.0000000000000000e+00  5.9692495812277359e-04 1.2190231050068431e-09 0.0000000000000000e+00  5.9692495812915824e-04 1.2190196171284542e-09 0.0000000000000000e+00  5.9692495811473163e-04 1.2190277034335173e-09 0.0000000000000000e+00  5.9692495812803479e-04 1.2190228652897428e-09 0.0000000000000000e+00  5.9692495811998047e-04 1.2190223082266666e-09 0.0000000000000000e+00  5.9692495812179976e-04 1.2190281396080513e-09 0.0000000000000000e+00  5.9692495811297934e-04 1.2190123466855260e-09 0.0000000000000000e+00  5.9692495811600513e-04 1.2190250114137331e-09 0.0000000000000000e+00  5.9692495812733613e-04 1.2190258130728195e-09 0.0000000000000000e+00  5.9692495812482360e-04 1.2190361633004389e-09 0.0000000000000000e+00  5.9692495812137801e-04 1.2190303618430341e-09 0.0000000000000000e+00  5.9692495811826385e-04 1.2190296549974278e-09 0.0000000000000000e+00  5.9692495812600343e-04 1.2190275125055147e-09 0.0000000000000000e+00  5.9692495812611727e-04 1.2190282846743020e-09 0.0000000000000000e+00  5.9692495811911094e-04 1.2190363073909076e-09 0.0000000000000000e+00  5.9692495814177716e-04 1.2190405144748076e-09 0.0000000000000000e+00  5.9692495811697647e-04 1.2190211171221599e-09 0.0000000000000000e+00  5.9692495812341023e-04 1.2190159805517374e-09 0.0000000000000000e+00  5.9692495811267251e-04 1.2190356861972729e-09 0.0000000000000000e+00  5.9692495811357619e-04 1.2190361843881711e-09 0.0000000000000000e+00  5.9692495812402324e-04 1.2190296180803438e-09 0.0000000000000000e+00  5.9692495812576143e-04 1.2190334202689425e-09 0.0000000000000000e+00  5.9692495812936944e-04 1.2190201115788550e-09 0.0000000000000000e+00  5.9692495811383760e-04 1.2190173096209705e-09 0.0000000000000000e+00  5.9692495812155950e-04 1.2190310062928054e-09 0.0000000000000000e+00  5.9692495812070580e-04 1.2190420242805429e-09 0.0000000000000000e+00  5.9692495812464471e-04 1.2190283434922698e-09 0.0000000000000000e+00  5.9692495811469086e-04 1.2190157890816337e-09 0.0000000000000000e+00  5.9692495813070052e-04 1.2190318939833342e-09 0.0000000000000000e+00  5.9692495811773324e-04 1.2190287738663222e-09 0.0000000000000000e+00  5.9692495812277381e-04 -3.1491711365704636e-09 0.0000000000000000e+00  2.0926973699798493e-04 -1.3117504062674402e-09 0.0000000000000000e+00  2.0926973701131238e-04 -1.3117348856965007e-09 0.0000000000000000e+00  2.0926973701512421e-04 -1.3117622825096174e-09 0.0000000000000000e+00  2.0926973699789117e-04 -1.3117507665749272e-09 0.0000000000000000e+00  2.0926973700893052e-04 -1.3117422430111280e-09 0.0000000000000000e+00  2.0926973699935184e-04 -1.3117301685090310e-09 0.0000000000000000e+00  2.0926973701190264e-04 -1.3117451978957289e-09 0.0000000000000000e+00  2.0926973699682551e-04 -1.3117484984510874e-09 0.0000000000000000e+00  2.0926973701288433e-04 -1.3117555422686566e-09 0.0000000000000000e+00  2.0926973700836573e-04 -1.3117658769515273e-09 0.0000000000000000e+00  2.0926973700037966e-04 -1.3117585157879823e-09 0.0000000000000000e+00  2.0926973700060114e-04 -1.3117490789193781e-09 0.0000000000000000e+00  2.0926973701669723e-04 -1.3117432713497836e-09 0.0000000000000000e+00  2.0926973700980325e-04 -1.3117549914126378e-09 0.0000000000000000e+00  2.0926973700221370e-04 -1.3117565343814070e-09 0.0000000000000000e+00  2.0926973700543210e-04 -1.3117427939755670e-09 0.0000000000000000e+00  2.0926973701761392e-04 -1.3117521978031101e-09 0.0000000000000000e+00  2.0926973700945124e-04 -1.3117541248911565e-09 0.0000000000000000e+00  2.0926973701192102e-04 -1.3117349117715629e-09 0.0000000000000000e+00  2.0926973701248139e-04 -1.3117411708707047e-09 0.0000000000000000e+00  2.0926973700044222e-04 -1.3117303129247604e-09 0.0000000000000000e+00  2.0926973702595480e-04 -1.3117307458602404e-09 0.0000000000000000e+00  2.0926973700853525e-04 -1.3117508328061274e-09 0.0000000000000000e+00  2.0926973699567601e-04 -1.3117413090929292e-09 0.0000000000000000e+00  2.0926973700655148e-04 -1.3117508326299446e-09 0.0000000000000000e+00  2.0926973701833237e-04 -1.3117498499226480e-09 0.0000000000000000e+00  2.0926973700722233e-04 -1.3117484050741753e-09 0.0000000000000000e+00  2.0926973700522680e-04 -1.3117430639554605e-09 0.0000000000000000e+00  2.0926973701368645e-04 -1.3117342241569926e-09 0.0000000000000000e+00  2.0926973701682156e-04 -1.3117518001448582e-09 0.0000000000000000e+00  2.0926973699798490e-04 -7.2511353338770662e-10 0.0000000000000000e+00  -2.1457021235056289e-04 -3.8670144856980775e-09 0.0000000000000000e+00  -2.1457021236022102e-04 -3.8670112087512212e-09 0.0000000000000000e+00  -2.1457021234254722e-04 -3.8670222253294959e-09 0.0000000000000000e+00  -2.1457021236847494e-04 -3.8670282028071233e-09 0.0000000000000000e+00  -2.1457021235873295e-04 -3.8670316496484600e-09 0.0000000000000000e+00  -2.1457021235538932e-04 -3.8670067817911206e-09 0.0000000000000000e+00  -2.1457021235739287e-04 -3.8670112262610863e-09 0.0000000000000000e+00  -2.1457021236489333e-04 -3.8670140374346892e-09 0.0000000000000000e+00  -2.1457021235682464e-04 -3.8670134130968682e-09 0.0000000000000000e+00  -2.1457021235650611e-04 -3.8670157439689087e-09 0.0000000000000000e+00  -2.1457021235144022e-04 -3.8670000507929833e-09 0.0000000000000000e+00  -2.1457021235497949e-04 -3.8670036536510126e-09 0.0000000000000000e+00  -2.1457021234437036e-04 -3.8670035724442699e-09 0.0000000000000000e+00  -2.1457021236050752e-04 -3.8670111180034994e-09 0.0000000000000000e+00  -2.1457021235847431e-04 -3.8670143872525202e-09 0.0000000000000000e+00  -2.1457021234994327e-04 -3.8670112016496970e-09 0.0000000000000000e+00  -2.1457021235050548e-04 -3.8670121691375056e-09 0.0000000000000000e+00  -2.1457021234663699e-04 -3.8670156488301681e-09 0.0000000000000000e+00  -2.1457021236390118e-04 -3.8670252366468198e-09 0.0000000000000000e+00  -2.1457021236187583e-04 -3.8670329424511304e-09 0.0000000000000000e+00  -2.1457021235333004e-04 -3.8670253567222104e-09 0.0000000000000000e+00  -2.1457021235873376e-04 -3.8670127136780467e-09 0.0000000000000000e+00  -2.1457021235463971e-04 -3.8670155569440340e-09 0.0000000000000000e+00  -2.1457021235931755e-04 -3.8670122173845023e-09 0.0000000000000000e+00  -2.1457021235770794e-04 -3.8670143783620624e-09 0.0000000000000000e+00  -2.1457021234646845e-04 -3.8670162850400029e-09 0.0000000000000000e+00  -2.1457021235654806e-04 -3.8670220185721416e-09 0.0000000000000000e+00  -2.1457021236656848e-04 -3.8670165598852536e-09 0.0000000000000000e+00  -2.1457021234912074e-04 -3.8670233892747381e-09 0.0000000000000000e+00  -2.1457021235767780e-04 -3.8670157962816636e-09 0.0000000000000000e+00  -2.1457021235056294e-04 1.8973730047915712e-09 0.0000000000000000e+00  -6.0130907973761859e-04 -5.9335796057363027e-09 0.0000000000000000e+00  -6.0130907973906785e-04 -5.9335874694546598e-09 0.0000000000000000e+00  -6.0130907974016712e-04 -5.9335878823188470e-09 0.0000000000000000e+00  -6.0130907974103307e-04 -5.9335856758590058e-09 0