<?xml version="1.0"?>
<VTKFile type="UnstructuredGrid"  version="0.1"  >
<UnstructuredGrid>
<Piece  NumberOfPoints="961" NumberOfCells="1800">
<Points>
<DataArray  type="Float64"  NumberOfComponents="3"  format="ascii">0 0 0  0.03333333333333333 0 0  0.06666666666666667 0 0  0.1 0 0  0.1333333333333333 0 0  0.1666666666666667 0 0  0.2 0 0  0.2333333333333333 0 0  0.2666666666666667 0 0  0.3 0 0  0.3333333333333333 0 0  0.3666666666666666 0 0  0.4 0 0  0.4333333333333333 0 0  0.4666666666666667 0 0  0.5 0 0  0.5333333333333333 0 0  0.5666666666666667 0 0  0.6 0 0  0.6333333333333333 0 0  0.6666666666666666 0 0  0.7 0 0  0.7333333333333333 0 0  0.7666666666666667 0 0  0.8 0 0  0.8333333333333334 0 0  0.8666666666666667 0 0  0.9 0 0  0.9333333333333333 0 0  0.9666666666666667 0 0  1 0 0  0 0.03333333333333333 0  0.03333333333333333 0.03333333333333333 0  0.06666666666666667 0.03333333333333333 0  0.1 0.03333333333333333 0  0.1333333333333333 0.03333333333333333 0  0.1666666666666667 0.03333333333333333 0  0.2 0.03333333333333333 0  0.2333333333333333 0.03333333333333333 0  0.2666666666666667 0.03333333333333333 0  0.3 0.03333333333333333 0  0.3333333333333333 0.03333333333333333 0  0.3666666666666666 0.03333333333333333 0  0.4 0.03333333333333333 0  0.4333333333333333 0.03333333333333333 0  0.4666666666666667 0.03333333333333333 0  0.5 0.03333333333333333 0  0.5333333333333333 0.03333333333333333 0  0.5666666666666667 0.03333333333333333 0  0.6 0.03333333333333333 0  0.6333333333333333 0.03333333333333333 0  0.6666666666666666 0.03333333333333333 0  0.7 0.03333333333333333 0  0.7333333333333333 0.03333333333333333 0  0.7666666666666667 0.03333333333333333 0  0.8 0.03333333333333333 0  0.8333333333333334 0.03333333333333333 0  0.8666666666666667 0.03333333333333333 0  0.9 0.03333333333333333 0  0.9333333333333333 0.03333333333333333 0  0.9666666666666667 0.03333333333333333 0  1 0.03333333333333333 0  0 0.06666666666666667 0  0.03333333333333333 0.06666666666666667 0  0.06666666666666667 0.06666666666666667 0  0.1 0.06666666666666667 0  0.1333333333333333 0.06666666666666667 0  0.1666666666666667 0.06666666666666667 0  0.2 0.06666666666666667 0  0.2333333333333333 0.06666666666666667 0  0.2666666666666667 0.06666666666666667 0  0.3 0.06666666666666667 0  0.3333333333333333 0.06666666666666667 0  0.3666666666666666 0.06666666666666667 0  0.4 0.06666666666666667 0  0.4333333333333333 0.06666666666666667 0  0.4666666666666667 0.06666666666666667 0  0.5 0.06666666666666667 0  0.5333333333333333 0.06666666666666667 0  0.5666666666666667 0.06666666666666667 0  0.6 0.06666666666666667 0  0.6333333333333333 0.06666666666666667 0  0.6666666666666666 0.06666666666666667 0  0.7 0.06666666666666667 0  0.7333333333333333 0.06666666666666667 0  0.7666666666666667 0.06666666666666667 0  0.8 0.06666666666666667 0  0.8333333333333334 0.06666666666666667 0  0.8666666666666667 0.06666666666666667 0  0.9 0.06666666666666667 0  0.9333333333333333 0.06666666666666667 0  0.9666666666666667 0.06666666666666667 0  1 0.06666666666666667 0  0 0.1 0  0.03333333333333333 0.1 0  0.06666666666666667 0.1 0  0.1 0.1 0  0.1333333333333333 0.1 0  0.1666666666666667 0.1 0  0.2 0.1 0  0.2333333333333333 0.1 0  0.2666666666666667 0.1 0  0.3 0.1 0  0.3333333333333333 0.1 0  0.3666666666666666 0.1 0  0.4 0.1 0  0.4333333333333333 0.1 0  0.4666666666666667 0.1 0  0.5 0.1 0  0.5333333333333333 0.1 0  0.5666666666666667 0.1 0  0.6 0.1 0  0.6333333333333333 0.1 0  0.6666666666666666 0.1 0  0.7 0.1 0  0.7333333333333333 0.1 0  0.7666666666666667 0.1 0  0.8 0.1 0  0.8333333333333334 0.1 0  0.8666666666666667 0.1 0  0.9 0.1 0  0.9333333333333333 0.1 0  0.9666666666666667 0.1 0  1 0.1 0  0 0.1333333333333333 0  0.03333333333333333 0.1333333333333333 0  0.06666666666666667 0.1333333333333333 0  0.1 0.1333333333333333 0  0.1333333333333333 0.1333333333333333 0  0.1666666666666667 0.1333333333333333 0  0.2 0.1333333333333333 0  0.2333333333333333 0.1333333333333333 0  0.2666666666666667 0.1333333333333333 0  0.3 0.1333333333333333 0  0.3333333333333333 0.1333333333333333 0  0.3666666666666666 0.1333333333333333 0  0.4 0.1333333333333333 0  0.4333333333333333 0.1333333333333333 0  0.4666666666666667 0.1333333333333333 0  0.5 0.1333333333333333 0  0.5333333333333333 0.1333333333333333 0  0.5666666666666667 0.1333333333333333 0  0.6 0.1333333333333333 0  0.6333333333333333 0.1333333333333333 0  0.6666666666666666 0.1333333333333333 0  0.7 0.1333333333333333 0  0.7333333333333333 0.1333333333333333 0  0.7666666666666667 0.1333333333333333 0  0.8 0.1333333333333333 0  0.8333333333333334 0.1333333333333333 0  0.8666666666666667 0.1333333333333333 0  0.9 0.1333333333333333 0  0.9333333333333333 0.1333333333333333 0  0.9666666666666667 0.1333333333333333 0  1 0.1333333333333333 0  0 0.1666666666666667 0  0.03333333333333333 0.1666666666666667 0  0.06666666666666667 0.1666666666666667 0  0.1 0.1666666666666667 0  0.1333333333333333 0.1666666666666667 0  0.1666666666666667 0.1666666666666667 0  0.2 0.1666666666666667 0  0.2333333333333333 0.1666666666666667 0  0.2666666666666667 0.1666666666666667 0  0.3 0.1666666666666667 0  0.3333333333333333 0.1666666666666667 0  0.3666666666666666 0.1666666666666667 0  0.4 0.1666666666666667 0  0.4333333333333333 0.1666666666666667 0  0.4666666666666667 0.1666666666666667 0  0.5 0.1666666666666667 0  0.5333333333333333 0.1666666666666667 0  0.5666666666666667 0.1666666666666667 0  0.6 0.1666666666666667 0  0.6333333333333333 0.1666666666666667 0  0.6666666666666666 0.1666666666666667 0  0.7 0.1666666666666667 0  0.7333333333333333 0.1666666666666667 0  0.7666666666666667 0.1666666666666667 0  0.8 0.1666666666666667 0  0.8333333333333334 0.1666666666666667 0  0.8666666666666667 0.1666666666666667 0  0.9 0.1666666666666667 0  0.9333333333333333 0.1666666666666667 0  0.9666666666666667 0.1666666666666667 0  1 0.1666666666666667 0  0 0.2 0  0.03333333333333333 0.2 0  0.06666666666666667 0.2 0  0.1 0.2 0  0.1333333333333333 0.2 0  0.1666666666666667 0.2 0  0.2 0.2 0  0.2333333333333333 0.2 0  0.2666666666666667 0.2 0  0.3 0.2 0  0.3333333333333333 0.2 0  0.3666666666666666 0.2 0  0.4 0.2 0  0.4333333333333333 0.2 0  0.4666666666666667 0.2 0  0.5 0.2 0  0.5333333333333333 0.2 0  0.5666666666666667 0.2 0  0.6 0.2 0  0.6333333333333333 0.2 0  0.6666666666666666 0.2 0  0.7 0.2 0  0.7333333333333333 0.2 0  0.7666666666666667 0.2 0  0.8 0.2 0  0.8333333333333334 0.2 0  0.8666666666666667 0.2 0  0.9 0.2 0  0.9333333333333333 0.2 0  0.9666666666666667 0.2 0  1 0.2 0  0 0.2333333333333333 0  0.03333333333333333 0.2333333333333333 0  0.06666666666666667 0.2333333333333333 0  0.1 0.2333333333333333 0  0.1333333333333333 0.2333333333333333 0  0.1666666666666667 0.2333333333333333 0  0.2 0.2333333333333333 0  0.2333333333333333 0.2333333333333333 0  0.2666666666666667 0.2333333333333333 0  0.3 0.2333333333333333 0  0.3333333333333333 0.2333333333333333 0  0.3666666666666666 0.2333333333333333 0  0.4 0.2333333333333333 0  0.4333333333333333 0.2333333333333333 0  0.4666666666666667 0.2333333333333333 0  0.5 0.2333333333333333 0  0.5333333333333333 0.2333333333333333 0  0.5666666666666667 0.2333333333333333 0  0.6 0.2333333333333333 0  0.6333333333333333 0.2333333333333333 0  0.6666666666666666 0.2333333333333333 0  0.7 0.2333333333333333 0  0.7333333333333333 0.2333333333333333 0  0.7666666666666667 0.2333333333333333 0  0.8 0.2333333333333333 0  0.8333333333333334 0.2333333333333333 0  0.8666666666666667 0.2333333333333333 0  0.9 0.2333333333333333 0  0.9333333333333333 0.2333333333333333 0  0.9666666666666667 0.2333333333333333 0  1 0.2333333333333333 0  0 0.2666666666666667 0  0.03333333333333333 0.2666666666666667 0  0.06666666666666667 0.2666666666666667 0  0.1 0.2666666666666667 0  0.1333333333333333 0.2666666666666667 0  0.1666666666666667 0.2666666666666667 0  0.2 0.2666666666666667 0  0.2333333333333333 0.2666666666666667 0  0.2666666666666667 0.2666666666666667 0  0.3 0.2666666666666667 0  0.3333333333333333 0.2666666666666667 0  0.3666666666666666 0.2666666666666667 0  0.4 0.2666666666666667 0  0.4333333333333333 0.2666666666666667 0  0.4666666666666667 0.2666666666666667 0  0.5 0.2666666666666667 0  0.5333333333333333 0.2666666666666667 0  0.5666666666666667 0.2666666666666667 0  0.6 0.2666666666666667 0  0.6333333333333333 0.2666666666666667 0  0.6666666666666666 0.2666666666666667 0  0.7 0.2666666666666667 0  0.7333333333333333 0.2666666666666667 0  0.7666666666666667 0.2666666666666667 0  0.8 0.2666666666666667 0  0.8333333333333334 0.2666666666666667 0  0.8666666666666667 0.2666666666666667 0  0.9 0.2666666666666667 0  0.9333333333333333 0.2666666666666667 0  0.9666666666666667 0.2666666666666667 0  1 0.2666666666666667 0  0 0.3 0  0.03333333333333333 0.3 0  0.06666666666666667 0.3 0  0.1 0.3 0  0.1333333333333333 0.3 0  0.1666666666666667 0.3 0  0.2 0.3 0  0.2333333333333333 0.3 0  0.2666666666666667 0.3 0  0.3 0.3 0  0.3333333333333333 0.3 0  0.3666666666666666 0.3 0  0.4 0.3 0  0.4333333333333333 0.3 0  0.4666666666666667 0.3 0  0.5 0.3 0  0.5333333333333333 0.3 0  0.5666666666666667 0.3 0  0.6 0.3 0  0.6333333333333333 0.3 0  0.6666666666666666 0.3 0  0.7 0.3 0  0.7333333333333333 0.3 0  0.7666666666666667 0.3 0  0.8 0.3 0  0.8333333333333334 0.3 0  0.8666666666666667 0.3 0  0.9 0.3 0  0.9333333333333333 0.3 0  0.9666666666666667 0.3 0  1 0.3 0  0 0.3333333333333333 0  0.03333333333333333 0.3333333333333333 0  0.06666666666666667 0.3333333333333333 0  0.1 0.3333333333333333 0  0.1333333333333333 0.3333333333333333 0  0.1666666666666667 0.3333333333333333 0  0.2 0.3333333333333333 0  0.2333333333333333 0.3333333333333333 0  0.2666666666666667 0.3333333333333333 0  0.3 0.3333333333333333 0  0.3333333333333333 0.3333333333333333 0  0.3666666666666666 0.3333333333333333 0  0.4 0.3333333333333333 0  0.4333333333333333 0.3333333333333333 0  0.4666666666666667 0.3333333333333333 0  0.5 0.3333333333333333 0  0.5333333333333333 0.33333333333333
[...]
<PointData  Vectors="u_f"> 
<DataArray  type="Float64"  Name="u_f"  NumberOfComponents="3" format="ascii">2.7097322552653113e-06 3.6168839282640398e-09 0.0000000000000000e+00  2.7097322659475217e-06 3.6168931530355941e-09 0.0000000000000000e+00  2.7097322642285191e-06 3.6168961512882819e-09 0.0000000000000000e+00  2.7097322804538215e-06 3.6168874685636038e-09 0.0000000000000000e+00  2.7097322646003463e-06 3.6168717263275300e-09 0.0000000000000000e+00  2.7097322414044371e-06 3.6168730142512907e-09 0.0000000000000000e+00  2.7097322668587394e-06 3.6168851199648577e-09 0.0000000000000000e+00  2.7097322532613263e-06 3.6168670331415860e-09 0.0000000000000000e+00  2.7097322674450217e-06 3.6168680873655684e-09 0.0000000000000000e+00  2.7097322627591541e-06 3.6169161501020848e-09 0.0000000000000000e+00  2.7097322752366948e-06 3.6168972914352865e-09 0.0000000000000000e+00  2.7097322455923306e-06 3.6167762024782828e-09 0.0000000000000000e+00  2.7097321886785470e-06 3.6168512803887512e-09 0.0000000000000000e+00  2.7097322713457643e-06 3.6168862594071309e-09 0.0000000000000000e+00  2.7097322692404063e-06 3.6168866950937739e-09 0.0000000000000000e+00  2.7097322563097775e-06 3.6168733041127415e-09 0.0000000000000000e+00  2.7097322651513920e-06 3.6168768999776668e-09 0.0000000000000000e+00  2.7097322847260659e-06 3.6168926955564874e-09 0.0000000000000000e+00  2.7097322667396398e-06 3.6168780679344571e-09 0.0000000000000000e+00  2.7097322505544529e-06 3.6168640393883372e-09 0.0000000000000000e+00  2.7097322618512432e-06 3.6168747581362751e-09 0.0000000000000000e+00  2.7097322720374853e-06 3.6168700517230645e-09 0.0000000000000000e+00  2.7097322898660516e-06 3.6169835369533922e-09 0.0000000000000000e+00  2.7097323440110539e-06 3.6169222484140444e-09 0.0000000000000000e+00  2.7097322757544556e-06 3.6168842624151494e-09 0.0000000000000000e+00  2.7097322710214252e-06 3.6169061625943022e-09 0.0000000000000000e+00  2.7097322615959136e-06 3.6168922797107442e-09 0.0000000000000000e+00  2.7097322719852267e-06 3.6168742803825878e-09 0.0000000000000000e+00  2.7097322523473438e-06 3.6168920964805770e-09 0.0000000000000000e+00  2.7097322844101294e-06 3.6168755780099579e-09 0.0000000000000000e+00  2.7097322552654198e-06 -8.8719573502769599e-10 0.0000000000000000e+00  4.1705350957386956e-04 5.6386709421660589e-09 0.0000000000000000e+00  4.1705350957158417e-04 5.6386968787756897e-09 0.0000000000000000e+00  4.1705350959095788e-04 5.6387026833772808e-09 0.0000000000000000e+00  4.1705350958247975e-04 5.6386958081260444e-09 0.0000000000000000e+00  4.1705350958695935e-04 5.6386999308048052e-09 0.0000000000000000e+00  4.1705350958295691e-04 5.6386888330197879e-09 0.0000000000000000e+00  4.1705350957848587e-04 5.6386670143184284e-09 0.0000000000000000e+00  4.1705350957122963e-04 5.6386894621823086e-09 0.0000000000000000e+00  4.1705350956912400e-04 5.6386923619894391e-09 0.0000000000000000e+00  4.1705350958165727e-04 5.6386610228003828e-09 0.0000000000000000e+00  4.1705350959060942e-04 5.6386866941057420e-09 0.0000000000000000e+00  4.1705350951004095e-04 5.6385961576949084e-09 0.0000000000000000e+00  4.1705350952690821e-04 5.6386380317512141e-09 0.0000000000000000e+00  4.1705350957351795e-04 5.6386927330034226e-09 0.0000000000000000e+00  4.1705350958683228e-04 5.6386862402587126e-09 0.0000000000000000e+00  4.1705350958020477e-04 5.6386838738790510e-09 0.0000000000000000e+00  4.1705350957153570e-04 5.6386987795989385e-09 0.0000000000000000e+00  4.1705350958693116e-04 5.6386737311677274e-09 0.0000000000000000e+00  4.1705350957178312e-04 5.6387081886306520e-09 0.0000000000000000e+00  4.1705350958878634e-04 5.6387061987944048e-09 0.0000000000000000e+00  4.1705350958032945e-04 5.6386824009903996e-09 0.0000000000000000e+00  4.1705350958024380e-04 5.6386687341883346e-09 0.0000000000000000e+00  4.1705350964414906e-04 5.6387890311898614e-09 0.0000000000000000e+00  4.1705350963761251e-04 5.6387185106690149e-09 0.0000000000000000e+00  4.1705350959317735e-04 5.6386980856011279e-09 0.0000000000000000e+00  4.1705350956748599e-04 5.6386790012576474e-09 0.0000000000000000e+00  4.1705350957596857e-04 5.6386972317919171e-09 0.0000000000000000e+00  4.1705350959270182e-04 5.6386988575530747e-09 0.0000000000000000e+00  4.1705350957877763e-04 5.6386862141294403e-09 0.0000000000000000e+00  4.1705350958982663e-04 5.6386775139491072e-09 0.0000000000000000e+00  4.1705350957386977e-04 -3.5622877806129257e-09 0.0000000000000000e+00  7.5928488506654137e-04 6.4569001441156654e-09 0.0000000000000000e+00  7.5928488505978657e-04 6.4569133624917119e-09 0.0000000000000000e+00  7.5928488507148186e-04 6.4569016043191513e-09 0.0000000000000000e+00  7.5928488505939160e-04 6.4568868706621485e-09 0.0000000000000000e+00  7.5928488505004989e-04 6.4569177027698488e-09 0.0000000000000000e+00  7.5928488507096253e-04 6.4569315336117025e-09 0.0000000000000000e+00  7.5928488505403033e-04 6.4569207760493269e-09 0.0000000000000000e+00  7.5928488506853196e-04 6.4569221702249005e-09 0.0000000000000000e+00  7.5928488505571669e-04 6.4569309436973005e-09 0.0000000000000000e+00  7.5928488506931747e-04 6.4569110643083669e-09 0.0000000000000000e+00  7.5928488506635423e-04 6.4569364312781763e-09 0.0000000000000000e+00  7.5928488500301926e-04 6.4568152701675180e-09 0.0000000000000000e+00  7.5928488501660161e-04 6.4569058777020141e-09 0.0000000000000000e+00  7.5928488504720755e-04 6.4569062780978764e-09 0.0000000000000000e+00  7.5928488507619337e-04 6.4569130210764478e-09 0.0000000000000000e+00  7.5928488506894428e-04 6.4569167938831676e-09 0.0000000000000000e+00  7.5928488505249119e-04 6.4569027402377674e-09 0.0000000000000000e+00  7.5928488507171843e-04 6.4569333671059964e-09 0.0000000000000000e+00  7.5928488506745546e-04 6.4568999797506160e-09 0.0000000000000000e+00  7.5928488503840589e-04 6.4569074660581968e-09 0.0000000000000000e+00  7.5928488507991272e-04 6.4569095444737615e-09 0.0000000000000000e+00  7.5928488505879117e-04 6.4569109785479750e-09 0.0000000000000000e+00  7.5928488513266393e-04 6.4570028986176212e-09 0.0000000000000000e+00  7.5928488511335440e-04 6.4569316920136399e-09 0.0000000000000000e+00  7.5928488507308247e-04 6.4569063286216977e-09 0.0000000000000000e+00  7.5928488505350557e-04 6.4568964697545028e-09 0.0000000000000000e+00  7.5928488506509385e-04 6.4569056081693540e-09 0.0000000000000000e+00  7.5928488505737064e-04 6.4569101776478302e-09 0.0000000000000000e+00  7.5928488505843587e-04 6.4569207090456326e-09 0.0000000000000000e+00  7.5928488507494881e-04 6.4569049207851767e-09 0.0000000000000000e+00  7.5928488506654180e-04 -5.4956787646049476e-09 0.0000000000000000e+00  9.7022907682196044e-04 6.3062698589608918e-09 0.0000000000000000e+00  9.7022907684046755e-04 6.3062749449532829e-09 0.0000000000000000e+00  9.7022907683971165e-04 6.3062871415772020e-09 0.0000000000000000e+00  9.7022907683611535e-04 6.3062850269492848e-09 0.0000000000000000e+00  9.7022907683337991e-04 6.3062783690805840e-09 0.0000000000000000e+00  9.7022907683751896e-04 6.3062940895784042e-09 0.0000000000000000e+00  9.7022907685341423e-04 6.3063010636004585e-09 0.0000000000000000e+00  9.7022907683494571e-04 6.3062849161438228e-09 0.0000000000000000e+00  9.7022907683503657e-04 6.3062882413918858e-09 0.0000000000000000e+00  9.7022907684729000e-04 6.3062912890841927e-09 0.0000000000000000e+00  9.7022907685133169e-04 6.3062993134813117e-09 0.0000000000000000e+00  9.7022907680218004e-04 6.3063202776145189e-09 0.0000000000000000e+00  9.7022907686288365e-04 6.3062871829937250e-09 0.0000000000000000e+00  9.7022907684355189e-04 6.3063070247608433e-09 0.0000000000000000e+00  9.7022907684079845e-04 6.3062919493633157e-09 0.0000000000000000e+00  9.7022907684600175e-04 6.3062676977122811e-09 0.0000000000000000e+00  9.7022907683401113e-04 6.3062860816611582e-09 0.0000000000000000e+00  9.7022907683701936e-04 6.3062671419502475e-09 0.0000000000000000e+00  9.7022907681968838e-04 6.3062924214249416e-09 0.0000000000000000e+00  9.7022907684345952e-04 6.3062874343117886e-09 0.0000000000000000e+00  9.7022907684770070e-04 6.3062844347580582e-09 0.0000000000000000e+00  9.7022907683132816e-04 6.3062721980186587e-09 0.0000000000000000e+00  9.7022907686613864e-04 6.3062719865992350e-09 0.0000000000000000e+00  9.7022907682625063e-04 6.3062905149638415e-09 0.0000000000000000e+00  9.7022907685297057e-04 6.3063077650540866e-09 0.0000000000000000e+00  9.7022907683035780e-04 6.3062927969925742e-09 0.0000000000000000e+00  9.7022907683711260e-04 6.3062966996867142e-09 0.0000000000000000e+00  9.7022907684386501e-04 6.3062880642332508e-09 0.0000000000000000e+00  9.7022907682637444e-04 6.3062816472742728e-09 0.0000000000000000e+00  9.7022907684591003e-04 6.3062918574229715e-09 0.0000000000000000e+00  9.7022907682196066e-04 -6.4671142077969955e-09 0.0000000000000000e+00  1.0134119846288174e-03 5.4348733136535057e-09 0.0000000000000000e+00  1.0134119846077539e-03 5.4348588854162549e-09 0.0000000000000000e+00  1.0134119846320652e-03 5.4348519699411180e-09 0.0000000000000000e+00  1.0134119846328649e-03 5.4348284170583835e-09 0.0000000000000000e+00  1.0134119846176692e-03 5.4348505295785318e-09 0.0000000000000000e+00  1.0134119846194709e-03 5.4348560410118554e-09 0.0000000000000000e+00  1.0134119846187295e-03 5.4348586758399750e-09 0.0000000000000000e+00  1.0134119846345632e-03 5.4348782698668968e-09 0.0000000000000000e+00  1.0134119846283837e-03 5.4348865825533735e-09 0.0000000000000000e+00  1.0134119846304185e-03 5.4348701605767477e-09 0.0000000000000000e+00  1.0134119846295568e-03 5.4348633961309734e-09 0.0000000000000000e+00  1.0134119846343030e-03 5.4348630180696758e-09 0.0000000000000000e+00  1.0134119846179877e-03 5.4348834356565678e-09 0.0000000000000000e+00  1.0134119846411263e-03 5.4348648216399897e-09 0.0000000000000000e+00  1.0134119846385578e-03 5.4348830276712903e-09 0.0000000000000000e+00  1.0134119846372447e-03 5.4348785685645953e-09 0.0000000000000000e+00  1.0134119846283581e-03 5.4348587218101471e-09 0.0000000000000000e+00  1.0134119846132133e-03 5.4348386310017899e-09 0.0000000000000000e+00  1.0134119846322088e-03 5.4348544580766836e-09 0.0000000000000000e+00  1.0134119846149032e-03 5.4348634200918414e-09 0.0000000000000000e+00  1.0134119846245755e-03 5.4348480863289361e-09 0.0000000000000000e+00  1.0134119846229050e-03 5.4348741526091468e-09 0.0000000000000000e+00  1.0134119846189654e-03 5.4348654110122907e-09 0.0000000000000000e+00  1.0134119846213255e-03 5.4348731778029735e-09 0.0000000000000000e+00  1.0134119846350882e-03 5.4348573473670531e-09 0.0000000000000000e+00  1.0134119846324679e-03 5.4348643773339395e-09 0.0000000000000000e+00  1.0134119846181813e-03 5.4348783666861508e-09 0.0000000000000000e+00  1.0134119846391264e-03 5.4348937322161797e-09 0.0000000000000000e+00  1.0134119846261680e-03 5.4348472043304688e-09 0.0000000000000000e+00  1.0134119846192417e-03 5.4348861153706574e-09 0.0000000000000000e+00  1.0134119846288178e-03 -6.4102704078589058e-09 0.0000000000000000e+00  8.8136684878364414e-04 3.9145853686405399e-09 0.0000000000000000e+00  8.8136684876152728e-04 3.9146017752214948e-09 0.0000000000000000e+00  8.8136684877560684e-04 3.9146003773596338e-09 0.0000000000000000e+00  8.8136684876723777e-04 3.9146038104858130e-09 0.0000000000000000e+00  8.8136684876019935e-04 3.9146128086049031e-09 0.0000000000000000e+00  8.8136684878573394e-04 3.9146065891875609e-09 0.0000000000000000e+00  8.8136684878220182e-04 3.9145978150646396e-09 0.0000000000000000e+00  8.8136684877065604e-04 3.9146035038734386e-09 0.0000000000000000e+00  8.8136684876758407e-04 3.9145907961566154e-09 0.0000000000000000e+00  8.8136684876810806e-04 3.9145934108185745e-09 0.0000000000000000e+00  8.8136684877656733e-04 3.9145962970731779e-09 0.0000000000000000e+00  8.8136684877056150e-04 3.9145950779962552e-09 0.0000000000000000e+00  8.8136684877777166e-04 3.9146099920644994e-09 0.0000000000000000e+00  8.8136684878048878e-04 3.9145828012497955e-09 0.0000000000000000e+00  8.8136684877130711e-04 3.9145906180221984e-09 0.0000000000000000e+00  8.8136684876864474e-04 3.9145782837046034e-09 0.0000000000000000e+00  8.8136684878022066e-04 3.9145877578968674e-09 0.0000000000000000e+00  8.8136684875900174e-04 3.9145937872535688e-09 0.0000000000000000e+00  8.8136684876992573e-04 3.9145955972206756e-09 0.0000000000000000e+00  8.8136684877544735e-04 3.9145883495459929e-09 0.0000000000000000e+00  8.8136684878636353e-04 3.9145990105059550e-09 0.0000000000000000e+00  8.8136684876214213e-04 3.9145940800965756e-09 0.0000000000000000e+00  8.8136684877462032e-04 3.9146014763069559e-09 0.0000000000000000e+00  8.8136684876085648e-04 3.9145955050634909e-09 0.0000000000000000e+00  8.8136684878917216e-04 3.9146013301565030e-09 0.0000000000000000e+00  8.8136684877256684e-04 3.9145922222077328e-09 0.0000000000000000e+00  8.8136684876796755e-04 3.9145899084118765e-09 0.0000000000000000e+00  8.8136684876870123e-04 3.9145897554309500e-09 0.0000000000000000e+00  8.8136684877528288e-04 3.9145988054833242e-09 0.0000000000000000e+00  8.8136684878580766e-04 3.9146115397631007e-09 0.0000000000000000e+00  8.8136684878364457e-04 -5.3570095854847903e-09 0.0000000000000000e+00  5.9692534842369018e-04 1.6814786991167091e-09 0.0000000000000000e+00  5.9692534839872404e-04 1.6815000743251700e-09 0.0000000000000000e+00  5.9692534842577412e-04 1.6814890504285307e-09 0.0000000000000000e+00  5.9692534840921564e-04 1.6814787276854364e-09 0.0000000000000000e+00  5.9692534840597713e-04 1.6814665559439571e-09 0.0000000000000000e+00  5.9692534840799895e-04 1.6814879785320529e-09 0.0000000000000000e+00  5.9692534840533995e-04 1.6814775870505408e-09 0.0000000000000000e+00  5.9692534839977029e-04 1.6814882855781081e-09 0.0000000000000000e+00  5.9692534842873107e-04 1.6814602785760087e-09 0.0000000000000000e+00  5.9692534838944305e-04 1.6814866659969029e-09 0.0000000000000000e+00  5.9692534840592487e-04 1.6815047746668484e-09 0.0000000000000000e+00  5.9692534841984950e-04 1.6815009867897183e-09 0.0000000000000000e+00  5.9692534839971576e-04 1.6814920315508242e-09 0.0000000000000000e+00  5.9692534843065227e-04 1.6815089368105683e-09 0.0000000000000000e+00  5.9692534841362531e-04 1.6814950684011093e-09 0.0000000000000000e+00  5.9692534840921868e-04 1.6814799474670905e-09 0.0000000000000000e+00  5.9692534840362441e-04 1.6814649019393328e-09 0.0000000000000000e+00  5.9692534840788999e-04 1.6814895262848642e-09 0.0000000000000000e+00  5.9692534841227635e-04 1.6814749632270733e-09 0.0000000000000000e+00  5.9692534841297154e-04 1.6814793265987164e-09 0.0000000000000000e+00  5.9692534841630741e-04 1.6814944890034683e-09 0.0000000000000000e+00  5.9692534839656734e-04 1.6814821928497897e-09 0.0000000000000000e+00  5.9692534841285379e-04 1.6814842508823535e-09 0.0000000000000000e+00  5.9692534842542251e-04 1.6814671325768825e-09 0.0000000000000000e+00  5.9692534840307732e-04 1.6814762038254091e-09 0.0000000000000000e+00  5.9692534839482590e-04 1.6814734217084244e-09 0.0000000000000000e+00  5.9692534841822862e-04 1.6814827283914528e-09 0.0000000000000000e+00  5.9692534839950943e-04 1.6814824763144477e-09 0.0000000000000000e+00  5.9692534841834441e-04 1.6814877027110202e-09 0.0000000000000000e+00  5.9692534840744688e-04 1.6814891826469856e-09 0.0000000000000000e+00  5.9692534842369039e-04 -3.4191542009052096e-09 0.0000000000000000e+00  2.0926987865612628e-04 -1.2371004962753252e-09 0.0000000000000000e+00  2.0926987865568488e-04 -1.2371257789619682e-09 0.0000000000000000e+00  2.0926987864028221e-04 -1.2371253137037110e-09 0.0000000000000000e+00  2.0926987863574233e-04 -1.2371409886650399e-09 0.0000000000000000e+00  2.0926987861709864e-04 -1.2371254094929729e-09 0.0000000000000000e+00  2.0926987863453291e-04 -1.2371335791596305e-09 0.0000000000000000e+00  2.0926987864699340e-04 -1.2371162595584736e-09 0.0000000000000000e+00  2.0926987862632842e-04 -1.2371357010517023e-09 0.0000000000000000e+00  2.0926987863465748e-04 -1.2371161892344102e-09 0.0000000000000000e+00  2.0926987864234938e-04 -1.2371374034795060e-09 0.0000000000000000e+00  2.0926987863537327e-04 -1.2371347819193105e-09 0.0000000000000000e+00  2.0926987862839421e-04 -1.2371318726660686e-09 0.0000000000000000e+00  2.0926987862664837e-04 -1.2371302596036289e-09 0.0000000000000000e+00  2.0926987863517372e-04 -1.2371417343792941e-09 0.0000000000000000e+00  2.0926987864290452e-04 -1.2371383900086153e-09 0.0000000000000000e+00  2.0926987863234558e-04 -1.2371428050967021e-09 0.0000000000000000e+00  2.0926987862049626e-04 -1.2371171242097061e-09 0.0000000000000000e+00  2.0926987865404518e-04 -1.2371172614968062e-09 0.0000000000000000e+00  2.0926987862973612e-04 -1.2371291812561481e-09 0.0000000000000000e+00  2.0926987863848699e-04 -1.2371410901057056e-09 0.0000000000000000e+00  2.0926987865117511e-04 -1.2371130940133906e-09 0.0000000000000000e+00  2.0926987862627719e-04 -1.2371284352708433e-09 0.0000000000000000e+00  2.0926987862491115e-04 -1.2371309754616658e-09 0.0000000000000000e+00  2.0926987863848282e-04 -1.2371326181905874e-09 0.0000000000000000e+00  2.0926987864658333e-04 -1.2371312736037107e-09 0.0000000000000000e+00  2.0926987861956110e-04 -1.2371454599012467e-09 0.0000000000000000e+00  2.0926987862087161e-04 -1.2371349803689657e-09 0.0000000000000000e+00  2.0926987864686974e-04 -1.2370929198298863e-09 0.0000000000000000e+00  2.0926987864549587e-04 -1.2371154877284995e-09 0.0000000000000000e+00  2.0926987862620884e-04 -1.2371276396019740e-09 0.0000000000000000e+00  2.0926987865612628e-04 -8.1688586583133383e-10 0.0000000000000000e+00  -2.1457044966930285e-04 -4.4902440838353978e-09 0.0000000000000000e+00  -2.1457044966752330e-04 -4.4902554411242052e-09 0.0000000000000000e+00  -2.1457044966545767e-04 -4.4902601781661271e-09 0.0000000000000000e+00  -2.1457044966927255e-04 -4.4902574567102539e-09 0.0000000000000000e+00  -2.1457044966280897e-04 -4.4902592765978105e-09 0.0000000000000000e+00  -2.1457044968326873e-04 -4.4902494905347916e-09 0.0000000000000000e+00  -2.1457044966432555e-04 -4.4902742721980582e-09 0.0000000000000000e+00  -2.1457044968321561e-04 -4.4902434043658963e-09 0.0000000000000000e+00  -2.1457044966775304e-04 -4.4902304793207476e-09 0.0000000000000000e+00  -2.1457044966712209e-04 -4.4902451020096580e-09 0.0000000000000000e+00  -2.1457044966557309e-04 -4.4902444686187488e-09 0.0000000000000000e+00  -2.1457044967925924e-04 -4.4902290951198340e-09 0.0000000000000000e+00  -2.1457044965517429e-04 -4.4902419043721907e-09 0.0000000000000000e+00  -2.1457044966849111e-04 -4.4902377626114716e-09 0.0000000000000000e+00  -2.1457044967225546e-04 -4.4902296146153049e-09 0.0000000000000000e+00  -2.1457044965151245e-04 -4.4902144004941094e-09 0.0000000000000000e+00  -2.1457044965249875e-04 -4.4902457632645630e-09 0.0000000000000000e+00  -2.1457044968223923e-04 -4.4902530057892853e-09 0.0000000000000000e+00  -2.1457044966296694e-04 -4.4902329773767631e-09 0.0000000000000000e+00  -2.1457044967271961e-04 -4.4902591128290724e-09 0.0000000000000000e+00  -2.1457044966828235e-04 -4.4902542511039006e-09 0.0000000000000000e+00  -2.1457044966974483e-04 -4.4902554800470632e-09 0.0000000000000000e+00  -2.1457044967582872e-04 -4.4902685705414634e-09 0.0000000000000000e+00  -2.1457044967340124e-04 -4.4902518452050698e-09 0.0000000000000000e+00  -2.1457044967321997e-04 -4.4902294924799302e-09 0.0000000000000000e+00  -2.1457044967271153e-04 -4.4902316301471436e-09 0.0000000000000000e+00  -2.1457044966347575e-04 -4.4902530940975523e-09 0.0000000000000000e+00  -2.1457044967359954e-04 -4.4902591467103903e-09 0.0000000000000000e+00  -2.1457044965934955e-04 -4.4902445333998287e-09 0.0000000000000000e+00  -2.1457044967118416e-04 -4.4902466759459518e-09 0.0000000000000000e+00  -2.1457044966930301e-04 2.0845211014920466e-09 0.0000000000000000e+00  -6.0130972390792618e-04 -7.3626476400009966e-09 0.0000000000000000e+00  -6.0130972389386495e-04 -7.3626235524981709e-09 0.0000000000000000e+00  -6.0130972388648272e-04 -7.3626380760367927e-09 0.0000000000000000e+00  -6.0130972390630682e-04 -7.3626487532597873e-09 0