<?xml version="1.0"?>
<VTKFile type="UnstructuredGrid"  version="0.1"  >
<UnstructuredGrid>
<Piece  NumberOfPoints="961" NumberOfCells="1800">
<Points>
<DataArray  type="Float64"  NumberOfComponents="3"  format="ascii">0 0 0  0.03333333333333333 0 0  0.06666666666666667 0 0  0.1 0 0  0.1333333333333333 0 0  0.1666666666666667 0 0  0.2 0 0  0.2333333333333333 0 0  0.2666666666666667 0 0  0.3 0 0  0.3333333333333333 0 0  0.3666666666666666 0 0  0.4 0 0  0.4333333333333333 0 0  0.4666666666666667 0 0  0.5 0 0  0.5333333333333333 0 0  0.5666666666666667 0 0  0.6 0 0  0.6333333333333333 0 0  0.6666666666666666 0 0  0.7 0 0  0.7333333333333333 0 0  0.7666666666666667 0 0  0.8 0 0  0.8333333333333334 0 0  0.8666666666666667 0 0  0.9 0 0  0.9333333333333333 0 0  0.9666666666666667 0 0  1 0 0  0 0.03333333333333333 0  0.03333333333333333 0.03333333333333333 0  0.06666666666666667 0.03333333333333333 0  0.1 0.03333333333333333 0  0.1333333333333333 0.03333333333333333 0  0.1666666666666667 0.03333333333333333 0  0.2 0.03333333333333333 0  0.2333333333333333 0.03333333333333333 0  0.2666666666666667 0.03333333333333333 0  0.3 0.03333333333333333 0  0.3333333333333333 0.03333333333333333 0  0.3666666666666666 0.03333333333333333 0  0.4 0.03333333333333333 0  0.4333333333333333 0.03333333333333333 0  0.4666666666666667 0.03333333333333333 0  0.5 0.03333333333333333 0  0.5333333333333333 0.03333333333333333 0  0.5666666666666667 0.03333333333333333 0  0.6 0.03333333333333333 0  0.6333333333333333 0.03333333333333333 0  0.6666666666666666 0.03333333333333333 0  0.7 0.03333333333333333 0  0.7333333333333333 0.03333333333333333 0  0.7666666666666667 0.03333333333333333 0  0.8 0.03333333333333333 0  0.8333333333333334 0.03333333333333333 0  0.8666666666666667 0.03333333333333333 0  0.9 0.03333333333333333 0  0.9333333333333333 0.03333333333333333 0  0.9666666666666667 0.03333333333333333 0  1 0.03333333333333333 0  0 0.06666666666666667 0  0.03333333333333333 0.06666666666666667 0  0.06666666666666667 0.06666666666666667 0  0.1 0.06666666666666667 0  0.1333333333333333 0.06666666666666667 0  0.1666666666666667 0.06666666666666667 0  0.2 0.06666666666666667 0  0.2333333333333333 0.06666666666666667 0  0.2666666666666667 0.06666666666666667 0  0.3 0.06666666666666667 0  0.3333333333333333 0.06666666666666667 0  0.3666666666666666 0.06666666666666667 0  0.4 0.06666666666666667 0  0.4333333333333333 0.06666666666666667 0  0.4666666666666667 0.06666666666666667 0  0.5 0.06666666666666667 0  0.5333333333333333 0.06666666666666667 0  0.5666666666666667 0.06666666666666667 0  0.6 0.06666666666666667 0  0.6333333333333333 0.06666666666666667 0  0.6666666666666666 0.06666666666666667 0  0.7 0.06666666666666667 0  0.7333333333333333 0.06666666666666667 0  0.7666666666666667 0.06666666666666667 0  0.8 0.06666666666666667 0  0.8333333333333334 0.06666666666666667 0  0.8666666666666667 0.06666666666666667 0  0.9 0.06666666666666667 0  0.9333333333333333 0.06666666666666667 0  0.9666666666666667 0.06666666666666667 0  1 0.06666666666666667 0  0 0.1 0  0.03333333333333333 0.1 0  0.06666666666666667 0.1 0  0.1 0.1 0  0.1333333333333333 0.1 0  0.1666666666666667 0.1 0  0.2 0.1 0  0.2333333333333333 0.1 0  0.2666666666666667 0.1 0  0.3 0.1 0  0.3333333333333333 0.1 0  0.3666666666666666 0.1 0  0.4 0.1 0  0.4333333333333333 0.1 0  0.4666666666666667 0.1 0  0.5 0.1 0  0.5333333333333333 0.1 0  0.5666666666666667 0.1 0  0.6 0.1 0  0.6333333333333333 0.1 0  0.6666666666666666 0.1 0  0.7 0.1 0  0.7333333333333333 0.1 0  0.7666666666666667 0.1 0  0.8 0.1 0  0.8333333333333334 0.1 0  0.8666666666666667 0.1 0  0.9 0.1 0  0.9333333333333333 0.1 0  0.9666666666666667 0.1 0  1 0.1 0  0 0.1333333333333333 0  0.03333333333333333 0.1333333333333333 0  0.06666666666666667 0.1333333333333333 0  0.1 0.1333333333333333 0  0.1333333333333333 0.1333333333333333 0  0.1666666666666667 0.1333333333333333 0  0.2 0.1333333333333333 0  0.2333333333333333 0.1333333333333333 0  0.2666666666666667 0.1333333333333333 0  0.3 0.1333333333333333 0  0.3333333333333333 0.1333333333333333 0  0.3666666666666666 0.1333333333333333 0  0.4 0.1333333333333333 0  0.4333333333333333 0.1333333333333333 0  0.4666666666666667 0.1333333333333333 0  0.5 0.1333333333333333 0  0.5333333333333333 0.1333333333333333 0  0.5666666666666667 0.1333333333333333 0  0.6 0.1333333333333333 0  0.6333333333333333 0.1333333333333333 0  0.6666666666666666 0.1333333333333333 0  0.7 0.1333333333333333 0  0.7333333333333333 0.1333333333333333 0  0.7666666666666667 0.1333333333333333 0  0.8 0.1333333333333333 0  0.8333333333333334 0.1333333333333333 0  0.8666666666666667 0.1333333333333333 0  0.9 0.1333333333333333 0  0.9333333333333333 0.1333333333333333 0  0.9666666666666667 0.1333333333333333 0  1 0.1333333333333333 0  0 0.1666666666666667 0  0.03333333333333333 0.1666666666666667 0  0.06666666666666667 0.1666666666666667 0  0.1 0.1666666666666667 0  0.1333333333333333 0.1666666666666667 0  0.1666666666666667 0.1666666666666667 0  0.2 0.1666666666666667 0  0.2333333333333333 0.1666666666666667 0  0.2666666666666667 0.1666666666666667 0  0.3 0.1666666666666667 0  0.3333333333333333 0.1666666666666667 0  0.3666666666666666 0.1666666666666667 0  0.4 0.1666666666666667 0  0.4333333333333333 0.1666666666666667 0  0.4666666666666667 0.1666666666666667 0  0.5 0.1666666666666667 0  0.5333333333333333 0.1666666666666667 0  0.5666666666666667 0.1666666666666667 0  0.6 0.1666666666666667 0  0.6333333333333333 0.1666666666666667 0  0.6666666666666666 0.1666666666666667 0  0.7 0.1666666666666667 0  0.7333333333333333 0.1666666666666667 0  0.7666666666666667 0.1666666666666667 0  0.8 0.1666666666666667 0  0.8333333333333334 0.1666666666666667 0  0.8666666666666667 0.1666666666666667 0  0.9 0.1666666666666667 0  0.9333333333333333 0.1666666666666667 0  0.9666666666666667 0.1666666666666667 0  1 0.1666666666666667 0  0 0.2 0  0.03333333333333333 0.2 0  0.06666666666666667 0.2 0  0.1 0.2 0  0.1333333333333333 0.2 0  0.1666666666666667 0.2 0  0.2 0.2 0  0.2333333333333333 0.2 0  0.2666666666666667 0.2 0  0.3 0.2 0  0.3333333333333333 0.2 0  0.3666666666666666 0.2 0  0.4 0.2 0  0.4333333333333333 0.2 0  0.4666666666666667 0.2 0  0.5 0.2 0  0.5333333333333333 0.2 0  0.5666666666666667 0.2 0  0.6 0.2 0  0.6333333333333333 0.2 0  0.6666666666666666 0.2 0  0.7 0.2 0  0.7333333333333333 0.2 0  0.7666666666666667 0.2 0  0.8 0.2 0  0.8333333333333334 0.2 0  0.8666666666666667 0.2 0  0.9 0.2 0  0.9333333333333333 0.2 0  0.9666666666666667 0.2 0  1 0.2 0  0 0.2333333333333333 0  0.03333333333333333 0.2333333333333333 0  0.06666666666666667 0.2333333333333333 0  0.1 0.2333333333333333 0  0.1333333333333333 0.2333333333333333 0  0.1666666666666667 0.2333333333333333 0  0.2 0.2333333333333333 0  0.2333333333333333 0.2333333333333333 0  0.2666666666666667 0.2333333333333333 0  0.3 0.2333333333333333 0  0.3333333333333333 0.2333333333333333 0  0.3666666666666666 0.2333333333333333 0  0.4 0.2333333333333333 0  0.4333333333333333 0.2333333333333333 0  0.4666666666666667 0.2333333333333333 0  0.5 0.2333333333333333 0  0.5333333333333333 0.2333333333333333 0  0.5666666666666667 0.2333333333333333 0  0.6 0.2333333333333333 0  0.6333333333333333 0.2333333333333333 0  0.6666666666666666 0.2333333333333333 0  0.7 0.2333333333333333 0  0.7333333333333333 0.2333333333333333 0  0.7666666666666667 0.2333333333333333 0  0.8 0.2333333333333333 0  0.8333333333333334 0.2333333333333333 0  0.8666666666666667 0.2333333333333333 0  0.9 0.2333333333333333 0  0.9333333333333333 0.2333333333333333 0  0.9666666666666667 0.2333333333333333 0  1 0.2333333333333333 0  0 0.2666666666666667 0  0.03333333333333333 0.2666666666666667 0  0.06666666666666667 0.2666666666666667 0  0.1 0.2666666666666667 0  0.1333333333333333 0.2666666666666667 0  0.1666666666666667 0.2666666666666667 0  0.2 0.2666666666666667 0  0.2333333333333333 0.2666666666666667 0  0.2666666666666667 0.2666666666666667 0  0.3 0.2666666666666667 0  0.3333333333333333 0.2666666666666667 0  0.3666666666666666 0.2666666666666667 0  0.4 0.2666666666666667 0  0.4333333333333333 0.2666666666666667 0  0.4666666666666667 0.2666666666666667 0  0.5 0.2666666666666667 0  0.5333333333333333 0.2666666666666667 0  0.5666666666666667 0.2666666666666667 0  0.6 0.2666666666666667 0  0.6333333333333333 0.2666666666666667 0  0.6666666666666666 0.2666666666666667 0  0.7 0.2666666666666667 0  0.7333333333333333 0.2666666666666667 0  0.7666666666666667 0.2666666666666667 0  0.8 0.2666666666666667 0  0.8333333333333334 0.2666666666666667 0  0.8666666666666667 0.2666666666666667 0  0.9 0.2666666666666667 0  0.9333333333333333 0.2666666666666667 0  0.9666666666666667 0.2666666666666667 0  1 0.2666666666666667 0  0 0.3 0  0.03333333333333333 0.3 0  0.06666666666666667 0.3 0  0.1 0.3 0  0.1333333333333333 0.3 0  0.1666666666666667 0.3 0  0.2 0.3 0  0.2333333333333333 0.3 0  0.2666666666666667 0.3 0  0.3 0.3 0  0.3333333333333333 0.3 0  0.3666666666666666 0.3 0  0.4 0.3 0  0.4333333333333333 0.3 0  0.4666666666666667 0.3 0  0.5 0.3 0  0.5333333333333333 0.3 0  0.5666666666666667 0.3 0  0.6 0.3 0  0.6333333333333333 0.3 0  0.6666666666666666 0.3 0  0.7 0.3 0  0.7333333333333333 0.3 0  0.7666666666666667 0.3 0  0.8 0.3 0  0.8333333333333334 0.3 0  0.8666666666666667 0.3 0  0.9 0.3 0  0.9333333333333333 0.3 0  0.9666666666666667 0.3 0  1 0.3 0  0 0.3333333333333333 0  0.03333333333333333 0.3333333333333333 0  0.06666666666666667 0.3333333333333333 0  0.1 0.3333333333333333 0  0.1333333333333333 0.3333333333333333 0  0.1666666666666667 0.3333333333333333 0  0.2 0.3333333333333333 0  0.2333333333333333 0.3333333333333333 0  0.2666666666666667 0.3333333333333333 0  0.3 0.3333333333333333 0  0.3333333333333333 0.3333333333333333 0  0.3666666666666666 0.3333333333333333 0  0.4 0.3333333333333333 0  0.4333333333333333 0.3333333333333333 0  0.4666666666666667 0.3333333333333333 0  0.5 0.3333333333333333 0  0.5333333333333333 0.33333333333333
[...]
<PointData  Vectors="u_f"> 
<DataArray  type="Float64"  Name="u_f"  NumberOfComponents="3" format="ascii">2.7083374718075807e-06 -2.2663302637554797e-09 0.0000000000000000e+00  2.7083374737028746e-06 -2.2663299060771830e-09 0.0000000000000000e+00  2.7083374746907454e-06 -2.2663278806248945e-09 0.0000000000000000e+00  2.7083374744385057e-06 -2.2663307444907230e-09 0.0000000000000000e+00  2.7083374747954251e-06 -2.2663370888623656e-09 0.0000000000000000e+00  2.7083374693786426e-06 -2.2663335860761968e-09 0.0000000000000000e+00  2.7083374731446189e-06 -2.2663354988256695e-09 0.0000000000000000e+00  2.7083374741804656e-06 -2.2663322033389562e-09 0.0000000000000000e+00  2.7083374764669938e-06 -2.2663308545372435e-09 0.0000000000000000e+00  2.7083374749846726e-06 -2.2663305522074677e-09 0.0000000000000000e+00  2.7083374761708440e-06 -2.2663303548826723e-09 0.0000000000000000e+00  2.7083374731657066e-06 -2.2663343433914143e-09 0.0000000000000000e+00  2.7083374722568199e-06 -2.2663331781451294e-09 0.0000000000000000e+00  2.7083374752638004e-06 -2.2663277553453334e-09 0.0000000000000000e+00  2.7083374754892061e-06 -2.2663306174764385e-09 0.0000000000000000e+00  2.7083374760555933e-06 -2.2663315856147684e-09 0.0000000000000000e+00  2.7083374761934496e-06 -2.2663299734061379e-09 0.0000000000000000e+00  2.7083374767188540e-06 -2.2663297593846291e-09 0.0000000000000000e+00  2.7083374770641724e-06 -2.2663302312836246e-09 0.0000000000000000e+00  2.7083374756284176e-06 -2.2663309361776671e-09 0.0000000000000000e+00  2.7083374770390731e-06 -2.2663294204088198e-09 0.0000000000000000e+00  2.7083374764281794e-06 -2.2663317910710801e-09 0.0000000000000000e+00  2.7083374772979806e-06 -2.2663203950762552e-09 0.0000000000000000e+00  2.7083374779364672e-06 -2.2663296060242318e-09 0.0000000000000000e+00  2.7083374764390756e-06 -2.2663306251200638e-09 0.0000000000000000e+00  2.7083374755580529e-06 -2.2663306907142952e-09 0.0000000000000000e+00  2.7083374766189989e-06 -2.2663300458308430e-09 0.0000000000000000e+00  2.7083374767179866e-06 -2.2663307946892836e-09 0.0000000000000000e+00  2.7083374752484048e-06 -2.2663302315004651e-09 0.0000000000000000e+00  2.7083374767775093e-06 -2.2663315924452421e-09 0.0000000000000000e+00  2.7083374718076892e-06 5.0858875025900774e-10 0.0000000000000000e+00  4.1704909757029067e-04 -4.1950394818069531e-09 0.0000000000000000e+00  4.1704909756477815e-04 -4.1950341929603355e-09 0.0000000000000000e+00  4.1704909757132034e-04 -4.1950406275918090e-09 0.0000000000000000e+00  4.1704909756619217e-04 -4.1950398098865305e-09 0.0000000000000000e+00  4.1704909756688020e-04 -4.1950451191161489e-09 0.0000000000000000e+00  4.1704909756490056e-04 -4.1950368746259889e-09 0.0000000000000000e+00  4.1704909757003664e-04 -4.1950347543602204e-09 0.0000000000000000e+00  4.1704909756999100e-04 -4.1950388081921433e-09 0.0000000000000000e+00  4.1704909756860333e-04 -4.1950429507118039e-09 0.0000000000000000e+00  4.1704909756602444e-04 -4.1950445176007836e-09 0.0000000000000000e+00  4.1704909756400197e-04 -4.1950400373521463e-09 0.0000000000000000e+00  4.1704909756348969e-04 -4.1950508952032228e-09 0.0000000000000000e+00  4.1704909756222085e-04 -4.1950459009343355e-09 0.0000000000000000e+00  4.1704909756657706e-04 -4.1950445624867536e-09 0.0000000000000000e+00  4.1704909756479051e-04 -4.1950419255986499e-09 0.0000000000000000e+00  4.1704909756693160e-04 -4.1950394655439205e-09 0.0000000000000000e+00  4.1704909756869700e-04 -4.1950415283469739e-09 0.0000000000000000e+00  4.1704909756650681e-04 -4.1950412876540916e-09 0.0000000000000000e+00  4.1704909756726965e-04 -4.1950409435283220e-09 0.0000000000000000e+00  4.1704909756594270e-04 -4.1950387911701692e-09 0.0000000000000000e+00  4.1704909756801580e-04 -4.1950401987898497e-09 0.0000000000000000e+00  4.1704909756608256e-04 -4.1950399083320877e-09 0.0000000000000000e+00  4.1704909757062016e-04 -4.1950326812572464e-09 0.0000000000000000e+00  4.1704909757441443e-04 -4.1950402460610645e-09 0.0000000000000000e+00  4.1704909756805982e-04 -4.1950426769507554e-09 0.0000000000000000e+00  4.1704909756588371e-04 -4.1950424896006200e-09 0.0000000000000000e+00  4.1704909756696098e-04 -4.1950411369499896e-09 0.0000000000000000e+00  4.1704909756684269e-04 -4.1950425650610912e-09 0.0000000000000000e+00  4.1704909756575903e-04 -4.1950445110955706e-09 0.0000000000000000e+00  4.1704909756426934e-04 -4.1950404986801706e-09 0.0000000000000000e+00  4.1704909757029089e-04 2.4408511628430873e-09 0.0000000000000000e+00  7.5927827183548029e-04 -5.4229634433196339e-09 0.0000000000000000e+00  7.5927827183861201e-04 -5.4229663894221972e-09 0.0000000000000000e+00  7.5927827183735011e-04 -5.4229582833846546e-09 0.0000000000000000e+00  7.5927827183520610e-04 -5.4229595275066475e-09 0.0000000000000000e+00  7.5927827183978631e-04 -5.4229596988105908e-09 0.0000000000000000e+00  7.5927827183340946e-04 -5.4229630391290640e-09 0.0000000000000000e+00  7.5927827183780536e-04 -5.4229621175572174e-09 0.0000000000000000e+00  7.5927827183863749e-04 -5.4229628088445225e-09 0.0000000000000000e+00  7.5927827183755827e-04 -5.4229619285807787e-09 0.0000000000000000e+00  7.5927827183715061e-04 -5.4229598980869501e-09 0.0000000000000000e+00  7.5927827183628336e-04 -5.4229623111957254e-09 0.0000000000000000e+00  7.5927827183050749e-04 -5.4229611590140767e-09 0.0000000000000000e+00  7.5927827183883188e-04 -5.4229605567397698e-09 0.0000000000000000e+00  7.5927827183587678e-04 -5.4229613104771202e-09 0.0000000000000000e+00  7.5927827183703569e-04 -5.4229647954281632e-09 0.0000000000000000e+00  7.5927827183633822e-04 -5.4229646918868557e-09 0.0000000000000000e+00  7.5927827183730262e-04 -5.4229575208652667e-09 0.0000000000000000e+00  7.5927827183965837e-04 -5.4229573640896325e-09 0.0000000000000000e+00  7.5927827183844417e-04 -5.4229577977705015e-09 0.0000000000000000e+00  7.5927827183952068e-04 -5.4229588790453281e-09 0.0000000000000000e+00  7.5927827183675271e-04 -5.4229605631365627e-09 0.0000000000000000e+00  7.5927827183834974e-04 -5.4229622824643678e-09 0.0000000000000000e+00  7.5927827184017326e-04 -5.4229506435540462e-09 0.0000000000000000e+00  7.5927827184379352e-04 -5.4229572414663668e-09 0.0000000000000000e+00  7.5927827183554578e-04 -5.4229630935560130e-09 0.0000000000000000e+00  7.5927827183750591e-04 -5.4229606003246972e-09 0.0000000000000000e+00  7.5927827183809235e-04 -5.4229579747122961e-09 0.0000000000000000e+00  7.5927827183852234e-04 -5.4229563803930014e-09 0.0000000000000000e+00  7.5927827183950008e-04 -5.4229615448816298e-09 0.0000000000000000e+00  7.5927827183660016e-04 -5.4229605457893279e-09 0.0000000000000000e+00  7.5927827183548072e-04 3.9637982610425512e-09 0.0000000000000000e+00  9.7022133557350915e-04 -5.7106413070551199e-09 0.0000000000000000e+00  9.7022133557373986e-04 -5.7106407963958966e-09 0.0000000000000000e+00  9.7022133557456494e-04 -5.7106455252520921e-09 0.0000000000000000e+00  9.7022133557532952e-04 -5.7106417771651818e-09 0.0000000000000000e+00  9.7022133557453523e-04 -5.7106420577567041e-09 0.0000000000000000e+00  9.7022133557268233e-04 -5.7106477990408883e-09 0.0000000000000000e+00  9.7022133557253401e-04 -5.7106437352343054e-09 0.0000000000000000e+00  9.7022133557420542e-04 -5.7106433822180780e-09 0.0000000000000000e+00  9.7022133557355555e-04 -5.7106444184985145e-09 0.0000000000000000e+00  9.7022133557517058e-04 -5.7106412133800522e-09 0.0000000000000000e+00  9.7022133557172390e-04 -5.7106444308584192e-09 0.0000000000000000e+00  9.7022133557394391e-04 -5.7106414109216880e-09 0.0000000000000000e+00  9.7022133557380448e-04 -5.7106444243532062e-09 0.0000000000000000e+00  9.7022133557341200e-04 -5.7106484827387782e-09 0.0000000000000000e+00  9.7022133557356834e-04 -5.7106400125177259e-09 0.0000000000000000e+00  9.7022133557320102e-04 -5.7106427694270101e-09 0.0000000000000000e+00  9.7022133557458120e-04 -5.7106452030272065e-09 0.0000000000000000e+00  9.7022133557421474e-04 -5.7106455627654873e-09 0.0000000000000000e+00  9.7022133557420976e-04 -5.7106454879555374e-09 0.0000000000000000e+00  9.7022133557421171e-04 -5.7106453220726050e-09 0.0000000000000000e+00  9.7022133557385240e-04 -5.7106450401800402e-09 0.0000000000000000e+00  9.7022133557353473e-04 -5.7106436569549085e-09 0.0000000000000000e+00  9.7022133557608044e-04 -5.7106444920074217e-09 0.0000000000000000e+00  9.7022133557558756e-04 -5.7106415568553004e-09 0.0000000000000000e+00  9.7022133557164649e-04 -5.7106458622221273e-09 0.0000000000000000e+00  9.7022133557393025e-04 -5.7106446505177794e-09 0.0000000000000000e+00  9.7022133557376740e-04 -5.7106453459250528e-09 0.0000000000000000e+00  9.7022133557456884e-04 -5.7106465708566673e-09 0.0000000000000000e+00  9.7022133557304771e-04 -5.7106472660471003e-09 0.0000000000000000e+00  9.7022133557180066e-04 -5.7106481824147765e-09 0.0000000000000000e+00  9.7022133557350936e-04 4.8070957647291448e-09 0.0000000000000000e+00  1.0134043237346423e-03 -4.9865676543482326e-09 0.0000000000000000e+00  1.0134043237350274e-03 -4.9865663719539030e-09 0.0000000000000000e+00  1.0134043237285928e-03 -4.9865691649671195e-09 0.0000000000000000e+00  1.0134043237352418e-03 -4.9865696248856811e-09 0.0000000000000000e+00  1.0134043237317986e-03 -4.9865705767067683e-09 0.0000000000000000e+00  1.0134043237353591e-03 -4.9865611574835544e-09 0.0000000000000000e+00  1.0134043237331456e-03 -4.9865587684440674e-09 0.0000000000000000e+00  1.0134043237356640e-03 -4.9865593465406657e-09 0.0000000000000000e+00  1.0134043237368911e-03 -4.9865595040752414e-09 0.0000000000000000e+00  1.0134043237374404e-03 -4.9865651242540429e-09 0.0000000000000000e+00  1.0134043237321638e-03 -4.9865611735297466e-09 0.0000000000000000e+00  1.0134043237343985e-03 -4.9865603128900621e-09 0.0000000000000000e+00  1.0134043237353793e-03 -4.9865549534618830e-09 0.0000000000000000e+00  1.0134043237365899e-03 -4.9865533649972801e-09 0.0000000000000000e+00  1.0134043237385155e-03 -4.9865615763108537e-09 0.0000000000000000e+00  1.0134043237348491e-03 -4.9865623441428322e-09 0.0000000000000000e+00  1.0134043237363525e-03 -4.9865617256054928e-09 0.0000000000000000e+00  1.0134043237361085e-03 -4.9865617705998830e-09 0.0000000000000000e+00  1.0134043237360847e-03 -4.9865620009928446e-09 0.0000000000000000e+00  1.0134043237360040e-03 -4.9865614545549497e-09 0.0000000000000000e+00  1.0134043237364390e-03 -4.9865602115171589e-09 0.0000000000000000e+00  1.0134043237359880e-03 -4.9865611465331125e-09 0.0000000000000000e+00  1.0134043237388325e-03 -4.9865601467902892e-09 0.0000000000000000e+00  1.0134043237345564e-03 -4.9865597403228948e-09 0.0000000000000000e+00  1.0134043237364329e-03 -4.9865616524218462e-09 0.0000000000000000e+00  1.0134043237330832e-03 -4.9865618588539398e-09 0.0000000000000000e+00  1.0134043237363427e-03 -4.9865612472554943e-09 0.0000000000000000e+00  1.0134043237364581e-03 -4.9865599961946075e-09 0.0000000000000000e+00  1.0134043237354359e-03 -4.9865613517725838e-09 0.0000000000000000e+00  1.0134043237356913e-03 -4.9865612241619880e-09 0.0000000000000000e+00  1.0134043237346425e-03 4.8153475254972943e-09 0.0000000000000000e+00  8.8136050619679084e-04 -3.3738631829722393e-09 0.0000000000000000e+00  8.8136050619649616e-04 -3.3738604156546143e-09 0.0000000000000000e+00  8.8136050619867085e-04 -3.3738613679093823e-09 0.0000000000000000e+00  8.8136050619653454e-04 -3.3738616873153424e-09 0.0000000000000000e+00  8.8136050619694426e-04 -3.3738600556994930e-09 0.0000000000000000e+00  8.8136050619797241e-04 -3.3738626079114070e-09 0.0000000000000000e+00  8.8136050619773225e-04 -3.3738597665427736e-09 0.0000000000000000e+00  8.8136050619812463e-04 -3.3738594408484410e-09 0.0000000000000000e+00  8.8136050619759315e-04 -3.3738568566525629e-09 0.0000000000000000e+00  8.8136050620044449e-04 -3.3738586491640146e-09 0.0000000000000000e+00  8.8136050619611538e-04 -3.3738616502356281e-09 0.0000000000000000e+00  8.8136050619807324e-04 -3.3738535196951164e-09 0.0000000000000000e+00  8.8136050619939661e-04 -3.3738625358119625e-09 0.0000000000000000e+00  8.8136050619882448e-04 -3.3738663620698495e-09 0.0000000000000000e+00  8.8136050619546779e-04 -3.3738608169178383e-09 0.0000000000000000e+00  8.8136050619621047e-04 -3.3738638550691660e-09 0.0000000000000000e+00  8.8136050619607039e-04 -3.3738609372642794e-09 0.0000000000000000e+00  8.8136050619647393e-04 -3.3738608801268249e-09 0.0000000000000000e+00  8.8136050619688701e-04 -3.3738613688851643e-09 0.0000000000000000e+00  8.8136050619568496e-04 -3.3738641417322204e-09 0.0000000000000000e+00  8.8136050619618423e-04 -3.3738582021474589e-09 0.0000000000000000e+00  8.8136050619929676e-04 -3.3738588091922553e-09 0.0000000000000000e+00  8.8136050619562793e-04 -3.3738671240471363e-09 0.0000000000000000e+00  8.8136050619902007e-04 -3.3738648616424630e-09 0.0000000000000000e+00  8.8136050619693385e-04 -3.3738635214601576e-09 0.0000000000000000e+00  8.8136050619584238e-04 -3.3738606277245592e-09 0.0000000000000000e+00  8.8136050619594289e-04 -3.3738636631653815e-09 0.0000000000000000e+00  8.8136050619620711e-04 -3.3738582565744080e-09 0.0000000000000000e+00  8.8136050619997558e-04 -3.3738586748596061e-09 0.0000000000000000e+00  8.8136050619729163e-04 -3.3738589995781568e-09 0.0000000000000000e+00  8.8136050619679128e-04 3.9813068554895374e-09 0.0000000000000000e+00  5.9692145267767056e-04 -1.1704210888777329e-09 0.0000000000000000e+00  5.9692145268297947e-04 -1.1704188888146845e-09 0.0000000000000000e+00  5.9692145268141995e-04 -1.1704237589966332e-09 0.0000000000000000e+00  5.9692145268343223e-04 -1.1704241110912887e-09 0.0000000000000000e+00  5.9692145267983235e-04 -1.1704274544997381e-09 0.0000000000000000e+00  5.9692145267824660e-04 -1.1704209406672959e-09 0.0000000000000000e+00  5.9692145268437418e-04 -1.1704258361111552e-09 0.0000000000000000e+00  5.9692145267930641e-04 -1.1704265465346288e-09 0.0000000000000000e+00  5.9692145268299714e-04 -1.1704258487963207e-09 0.0000000000000000e+00  5.9692145268156968e-04 -1.1704257449297525e-09 0.0000000000000000e+00  5.9692145267807172e-04 -1.1704248818506131e-09 0.0000000000000000e+00  5.9692145268298901e-04 -1.1704152225850382e-09 0.0000000000000000e+00  5.9692145268557852e-04 -1.1704214938814544e-09 0.0000000000000000e+00  5.9692145268089281e-04 -1.1704266534369630e-09 0.0000000000000000e+00  5.9692145268065385e-04 -1.1704261355135852e-09 0.0000000000000000e+00  5.9692145268015436e-04 -1.1704244058316493e-09 0.0000000000000000e+00  5.9692145268060008e-04 -1.1704252747654804e-09 0.0000000000000000e+00  5.9692145268065526e-04 -1.1704252470641149e-09 0.0000000000000000e+00  5.9692145268059032e-04 -1.1704253940277194e-09 0.0000000000000000e+00  5.9692145268008118e-04 -1.1704242794136760e-09 0.0000000000000000e+00  5.9692145268160752e-04 -1.1704267432089029e-09 0.0000000000000000e+00  5.9692145267897247e-04 -1.1704253245303602e-09 0.0000000000000000e+00  5.9692145268107420e-04 -1.1704179564550263e-09 0.0000000000000000e+00  5.9692145268287094e-04 -1.1704242593559358e-09 0.0000000000000000e+00  5.9692145268064214e-04 -1.1704272777205739e-09 0.0000000000000000e+00  5.9692145268039039e-04 -1.1704262040351625e-09 0.0000000000000000e+00  5.9692145268016986e-04 -1.1704239484609628e-09 0.0000000000000000e+00  5.9692145268199317e-04 -1.1704265658876375e-09 0.0000000000000000e+00  5.9692145268070015e-04 -1.1704266452512366e-09 0.0000000000000000e+00  5.9692145267954146e-04 -1.1704288587041818e-09 0.0000000000000000e+00  5.9692145267767067e-04 2.4509927171572811e-09 0.0000000000000000e+00  2.0926925083234845e-04 1.2152187707991594e-09 0.0000000000000000e+00  2.0926925083001303e-04 1.2152180049458498e-09 0.0000000000000000e+00  2.0926925083345388e-04 1.2152216849719687e-09 0.0000000000000000e+00  2.0926925083593776e-04 1.2152190492493824e-09 0.0000000000000000e+00  2.0926925083063517e-04 1.2152265404765305e-09 0.0000000000000000e+00  2.0926925083316917e-04 1.2152160412659801e-09 0.0000000000000000e+00  2.0926925082949979e-04 1.2152215381438895e-09 0.0000000000000000e+00  2.0926925083399994e-04 1.2152221782432996e-09 0.0000000000000000e+00  2.0926925083399742e-04 1.2152184671683410e-09 0.0000000000000000e+00  2.0926925083126157e-04 1.2152199185220267e-09 0.0000000000000000e+00  2.0926925083312390e-04 1.2152222400021659e-09 0.0000000000000000e+00  2.0926925083182590e-04 1.2152157531257002e-09 0.0000000000000000e+00  2.0926925083246690e-04 1.2152218190877775e-09 0.0000000000000000e+00  2.0926925083551901e-04 1.2152162582012823e-09 0.0000000000000000e+00  2.0926925083365565e-04 1.2152190458341455e-09 0.0000000000000000e+00  2.0926925083312767e-04 1.2152216096741279e-09 0.0000000000000000e+00  2.0926925083362513e-04 1.2152218013204144e-09 0.0000000000000000e+00  2.0926925083359109e-04 1.2152217978509674e-09 0.0000000000000000e+00  2.0926925083351557e-04 1.2152219181703035e-09 0.0000000000000000e+00  2.0926925083401956e-04 1.2152213575564652e-09 0.0000000000000000e+00  2.0926925083236030e-04 1.2152199832353439e-09 0.0000000000000000e+00  2.0926925083105226e-04 1.2152218006698931e-09 0.0000000000000000e+00  2.0926925083307305e-04 1.2152154950855832e-09 0.0000000000000000e+00  2.0926925082983926e-04 1.2152212788569400e-09 0.0000000000000000e+00  2.0926925083328176e-04 1.2152194659489348e-09 0.0000000000000000e+00  2.0926925083423451e-04 1.2152193262088273e-09 0.0000000000000000e+00  2.0926925083301163e-04 1.2152207728191285e-09 0.0000000000000000e+00  2.0926925083268000e-04 1.2152188624955582e-09 0.0000000000000000e+00  2.0926925083229232e-04 1.2152202641114692e-09 0.0000000000000000e+00  2.0926925083204317e-04 1.2152238216769527e-09 0.0000000000000000e+00  2.0926925083234848e-04 4.9720956548287806e-10 0.0000000000000000e+00  -2.1456751774394069e-04 3.3527505800953414e-09 0.0000000000000000e+00  -2.1456751774331006e-04 3.3527502689835280e-09 0.0000000000000000e+00  -2.1456751774000292e-04 3.3527517787892633e-09 0.0000000000000000e+00  -2.1456751774028964e-04 3.3527511146070124e-09 0.0000000000000000e+00  -2.1456751774218819e-04 3.3527441479033228e-09 0.0000000000000000e+00  -2.1456751774341225e-04 3.3527536872561374e-09 0.0000000000000000e+00  -2.1456751774289259e-04 3.3527498431631247e-09 0.0000000000000000e+00  -2.1456751773987211e-04 3.3527544363856285e-09 0.0000000000000000e+00  -2.1456751773960280e-04 3.3527541405068556e-09 0.0000000000000000e+00  -2.1456751774251925e-04 3.3527543184244321e-09 0.0000000000000000e+00  -2.1456751774188965e-04 3.3527502754345309e-09 0.0000000000000000e+00  -2.1456751774217583e-04 3.3527509371231168e-09 0.0000000000000000e+00  -2.1456751774390144e-04 3.3527518349509358e-09 0.0000000000000000e+00  -2.1456751773844769e-04 3.3527566814972772e-09 0.0000000000000000e+00  -2.1456751774181322e-04 3.3527541804054956e-09 0.0000000000000000e+00  -2.1456751774131248e-04 3.3527530431316267e-09 0.0000000000000000e+00  -2.1456751774150893e-04 3.3527529751521505e-09 0.0000000000000000e+00  -2.1456751774149159e-04 3.3527530142918489e-09 0.0000000000000000e+00  -2.1456751774149934e-04 3.3527530518052441e-09 0.0000000000000000e+00  -2.1456751774120682e-04 3.3527525982292652e-09 0.0000000000000000e+00  -2.1456751774256191e-04 3.3527537357199745e-09 0.0000000000000000e+00  -2.1456751774101844e-04 3.3527464276552309e-09 0.0000000000000000e+00  -2.1456751774226137e-04 3.3527461625135896e-09 0.0000000000000000e+00  -2.1456751774799344e-04 3.3527504433232373e-09 0.0000000000000000e+00  -2.1456751773960806e-04 3.3527552066028518e-09 0.0000000000000000e+00  -2.1456751774116286e-04 3.3527543659666974e-09 0.0000000000000000e+00  -2.1456751774114887e-04 3.3527519766019497e-09 0.0000000000000000e+00  -2.1456751774049970e-04 3.3527528839165377e-09 0.0000000000000000e+00  -2.1456751774483277e-04 3.3527538851772440e-09 0.0000000000000000e+00  -2.1456751774255286e-04 3.3527481308826337e-09 0.0000000000000000e+00  -2.1456751774394085e-04 -1.5330041857074697e-09 0.0000000000000000e+00  -6.0130362432438719e-04 4.8762670756732213e-09 0.0000000000000000e+00  -6.0130362432595386e-04 4.8762675885008488e-09 0.00