<?xml version="1.0"?>
<VTKFile type="UnstructuredGrid"  version="0.1"  >
<UnstructuredGrid>
<Piece  NumberOfPoints="961" NumberOfCells="1800">
<Points>
<DataArray  type="Float64"  NumberOfComponents="3"  format="ascii">0 0 0  0.03333333333333333 0 0  0.06666666666666667 0 0  0.1 0 0  0.1333333333333333 0 0  0.1666666666666667 0 0  0.2 0 0  0.2333333333333333 0 0  0.2666666666666667 0 0  0.3 0 0  0.3333333333333333 0 0  0.3666666666666666 0 0  0.4 0 0  0.4333333333333333 0 0  0.4666666666666667 0 0  0.5 0 0  0.5333333333333333 0 0  0.5666666666666667 0 0  0.6 0 0  0.6333333333333333 0 0  0.6666666666666666 0 0  0.7 0 0  0.7333333333333333 0 0  0.7666666666666667 0 0  0.8 0 0  0.8333333333333334 0 0  0.8666666666666667 0 0  0.9 0 0  0.9333333333333333 0 0  0.9666666666666667 0 0  1 0 0  0 0.03333333333333333 0  0.03333333333333333 0.03333333333333333 0  0.06666666666666667 0.03333333333333333 0  0.1 0.03333333333333333 0  0.1333333333333333 0.03333333333333333 0  0.1666666666666667 0.03333333333333333 0  0.2 0.03333333333333333 0  0.2333333333333333 0.03333333333333333 0  0.2666666666666667 0.03333333333333333 0  0.3 0.03333333333333333 0  0.3333333333333333 0.03333333333333333 0  0.3666666666666666 0.03333333333333333 0  0.4 0.03333333333333333 0  0.4333333333333333 0.03333333333333333 0  0.4666666666666667 0.03333333333333333 0  0.5 0.03333333333333333 0  0.5333333333333333 0.03333333333333333 0  0.5666666666666667 0.03333333333333333 0  0.6 0.03333333333333333 0  0.6333333333333333 0.03333333333333333 0  0.6666666666666666 0.03333333333333333 0  0.7 0.03333333333333333 0  0.7333333333333333 0.03333333333333333 0  0.7666666666666667 0.03333333333333333 0  0.8 0.03333333333333333 0  0.8333333333333334 0.03333333333333333 0  0.8666666666666667 0.03333333333333333 0  0.9 0.03333333333333333 0  0.9333333333333333 0.03333333333333333 0  0.9666666666666667 0.03333333333333333 0  1 0.03333333333333333 0  0 0.06666666666666667 0  0.03333333333333333 0.06666666666666667 0  0.06666666666666667 0.06666666666666667 0  0.1 0.06666666666666667 0  0.1333333333333333 0.06666666666666667 0  0.1666666666666667 0.06666666666666667 0  0.2 0.06666666666666667 0  0.2333333333333333 0.06666666666666667 0  0.2666666666666667 0.06666666666666667 0  0.3 0.06666666666666667 0  0.3333333333333333 0.06666666666666667 0  0.3666666666666666 0.06666666666666667 0  0.4 0.06666666666666667 0  0.4333333333333333 0.06666666666666667 0  0.4666666666666667 0.06666666666666667 0  0.5 0.06666666666666667 0  0.5333333333333333 0.06666666666666667 0  0.5666666666666667 0.06666666666666667 0  0.6 0.06666666666666667 0  0.6333333333333333 0.06666666666666667 0  0.6666666666666666 0.06666666666666667 0  0.7 0.06666666666666667 0  0.7333333333333333 0.06666666666666667 0  0.7666666666666667 0.06666666666666667 0  0.8 0.06666666666666667 0  0.8333333333333334 0.06666666666666667 0  0.8666666666666667 0.06666666666666667 0  0.9 0.06666666666666667 0  0.9333333333333333 0.06666666666666667 0  0.9666666666666667 0.06666666666666667 0  1 0.06666666666666667 0  0 0.1 0  0.03333333333333333 0.1 0  0.06666666666666667 0.1 0  0.1 0.1 0  0.1333333333333333 0.1 0  0.1666666666666667 0.1 0  0.2 0.1 0  0.2333333333333333 0.1 0  0.2666666666666667 0.1 0  0.3 0.1 0  0.3333333333333333 0.1 0  0.3666666666666666 0.1 0  0.4 0.1 0  0.4333333333333333 0.1 0  0.4666666666666667 0.1 0  0.5 0.1 0  0.5333333333333333 0.1 0  0.5666666666666667 0.1 0  0.6 0.1 0  0.6333333333333333 0.1 0  0.6666666666666666 0.1 0  0.7 0.1 0  0.7333333333333333 0.1 0  0.7666666666666667 0.1 0  0.8 0.1 0  0.8333333333333334 0.1 0  0.8666666666666667 0.1 0  0.9 0.1 0  0.9333333333333333 0.1 0  0.9666666666666667 0.1 0  1 0.1 0  0 0.1333333333333333 0  0.03333333333333333 0.1333333333333333 0  0.06666666666666667 0.1333333333333333 0  0.1 0.1333333333333333 0  0.1333333333333333 0.1333333333333333 0  0.1666666666666667 0.1333333333333333 0  0.2 0.1333333333333333 0  0.2333333333333333 0.1333333333333333 0  0.2666666666666667 0.1333333333333333 0  0.3 0.1333333333333333 0  0.3333333333333333 0.1333333333333333 0  0.3666666666666666 0.1333333333333333 0  0.4 0.1333333333333333 0  0.4333333333333333 0.1333333333333333 0  0.4666666666666667 0.1333333333333333 0  0.5 0.1333333333333333 0  0.5333333333333333 0.1333333333333333 0  0.5666666666666667 0.1333333333333333 0  0.6 0.1333333333333333 0  0.6333333333333333 0.1333333333333333 0  0.6666666666666666 0.1333333333333333 0  0.7 0.1333333333333333 0  0.7333333333333333 0.1333333333333333 0  0.7666666666666667 0.1333333333333333 0  0.8 0.1333333333333333 0  0.8333333333333334 0.1333333333333333 0  0.8666666666666667 0.1333333333333333 0  0.9 0.1333333333333333 0  0.9333333333333333 0.1333333333333333 0  0.9666666666666667 0.1333333333333333 0  1 0.1333333333333333 0  0 0.1666666666666667 0  0.03333333333333333 0.1666666666666667 0  0.06666666666666667 0.1666666666666667 0  0.1 0.1666666666666667 0  0.1333333333333333 0.1666666666666667 0  0.1666666666666667 0.1666666666666667 0  0.2 0.1666666666666667 0  0.2333333333333333 0.1666666666666667 0  0.2666666666666667 0.1666666666666667 0  0.3 0.1666666666666667 0  0.3333333333333333 0.1666666666666667 0  0.3666666666666666 0.1666666666666667 0  0.4 0.1666666666666667 0  0.4333333333333333 0.1666666666666667 0  0.4666666666666667 0.1666666666666667 0  0.5 0.1666666666666667 0  0.5333333333333333 0.1666666666666667 0  0.5666666666666667 0.1666666666666667 0  0.6 0.1666666666666667 0  0.6333333333333333 0.1666666666666667 0  0.6666666666666666 0.1666666666666667 0  0.7 0.1666666666666667 0  0.7333333333333333 0.1666666666666667 0  0.7666666666666667 0.1666666666666667 0  0.8 0.1666666666666667 0  0.8333333333333334 0.1666666666666667 0  0.8666666666666667 0.1666666666666667 0  0.9 0.1666666666666667 0  0.9333333333333333 0.1666666666666667 0  0.9666666666666667 0.1666666666666667 0  1 0.1666666666666667 0  0 0.2 0  0.03333333333333333 0.2 0  0.06666666666666667 0.2 0  0.1 0.2 0  0.1333333333333333 0.2 0  0.1666666666666667 0.2 0  0.2 0.2 0  0.2333333333333333 0.2 0  0.2666666666666667 0.2 0  0.3 0.2 0  0.3333333333333333 0.2 0  0.3666666666666666 0.2 0  0.4 0.2 0  0.4333333333333333 0.2 0  0.4666666666666667 0.2 0  0.5 0.2 0  0.5333333333333333 0.2 0  0.5666666666666667 0.2 0  0.6 0.2 0  0.6333333333333333 0.2 0  0.6666666666666666 0.2 0  0.7 0.2 0  0.7333333333333333 0.2 0  0.7666666666666667 0.2 0  0.8 0.2 0  0.8333333333333334 0.2 0  0.8666666666666667 0.2 0  0.9 0.2 0  0.9333333333333333 0.2 0  0.9666666666666667 0.2 0  1 0.2 0  0 0.2333333333333333 0  0.03333333333333333 0.2333333333333333 0  0.06666666666666667 0.2333333333333333 0  0.1 0.2333333333333333 0  0.1333333333333333 0.2333333333333333 0  0.1666666666666667 0.2333333333333333 0  0.2 0.2333333333333333 0  0.2333333333333333 0.2333333333333333 0  0.2666666666666667 0.2333333333333333 0  0.3 0.2333333333333333 0  0.3333333333333333 0.2333333333333333 0  0.3666666666666666 0.2333333333333333 0  0.4 0.2333333333333333 0  0.4333333333333333 0.2333333333333333 0  0.4666666666666667 0.2333333333333333 0  0.5 0.2333333333333333 0  0.5333333333333333 0.2333333333333333 0  0.5666666666666667 0.2333333333333333 0  0.6 0.2333333333333333 0  0.6333333333333333 0.2333333333333333 0  0.6666666666666666 0.2333333333333333 0  0.7 0.2333333333333333 0  0.7333333333333333 0.2333333333333333 0  0.7666666666666667 0.2333333333333333 0  0.8 0.2333333333333333 0  0.8333333333333334 0.2333333333333333 0  0.8666666666666667 0.2333333333333333 0  0.9 0.2333333333333333 0  0.9333333333333333 0.2333333333333333 0  0.9666666666666667 0.2333333333333333 0  1 0.2333333333333333 0  0 0.2666666666666667 0  0.03333333333333333 0.2666666666666667 0  0.06666666666666667 0.2666666666666667 0  0.1 0.2666666666666667 0  0.1333333333333333 0.2666666666666667 0  0.1666666666666667 0.2666666666666667 0  0.2 0.2666666666666667 0  0.2333333333333333 0.2666666666666667 0  0.2666666666666667 0.2666666666666667 0  0.3 0.2666666666666667 0  0.3333333333333333 0.2666666666666667 0  0.3666666666666666 0.2666666666666667 0  0.4 0.2666666666666667 0  0.4333333333333333 0.2666666666666667 0  0.4666666666666667 0.2666666666666667 0  0.5 0.2666666666666667 0  0.5333333333333333 0.2666666666666667 0  0.5666666666666667 0.2666666666666667 0  0.6 0.2666666666666667 0  0.6333333333333333 0.2666666666666667 0  0.6666666666666666 0.2666666666666667 0  0.7 0.2666666666666667 0  0.7333333333333333 0.2666666666666667 0  0.7666666666666667 0.2666666666666667 0  0.8 0.2666666666666667 0  0.8333333333333334 0.2666666666666667 0  0.8666666666666667 0.2666666666666667 0  0.9 0.2666666666666667 0  0.9333333333333333 0.2666666666666667 0  0.9666666666666667 0.2666666666666667 0  1 0.2666666666666667 0  0 0.3 0  0.03333333333333333 0.3 0  0.06666666666666667 0.3 0  0.1 0.3 0  0.1333333333333333 0.3 0  0.1666666666666667 0.3 0  0.2 0.3 0  0.2333333333333333 0.3 0  0.2666666666666667 0.3 0  0.3 0.3 0  0.3333333333333333 0.3 0  0.3666666666666666 0.3 0  0.4 0.3 0  0.4333333333333333 0.3 0  0.4666666666666667 0.3 0  0.5 0.3 0  0.5333333333333333 0.3 0  0.5666666666666667 0.3 0  0.6 0.3 0  0.6333333333333333 0.3 0  0.6666666666666666 0.3 0  0.7 0.3 0  0.7333333333333333 0.3 0  0.7666666666666667 0.3 0  0.8 0.3 0  0.8333333333333334 0.3 0  0.8666666666666667 0.3 0  0.9 0.3 0  0.9333333333333333 0.3 0  0.9666666666666667 0.3 0  1 0.3 0  0 0.3333333333333333 0  0.03333333333333333 0.3333333333333333 0  0.06666666666666667 0.3333333333333333 0  0.1 0.3333333333333333 0  0.1333333333333333 0.3333333333333333 0  0.1666666666666667 0.3333333333333333 0  0.2 0.3333333333333333 0  0.2333333333333333 0.3333333333333333 0  0.2666666666666667 0.3333333333333333 0  0.3 0.3333333333333333 0  0.3333333333333333 0.3333333333333333 0  0.3666666666666666 0.3333333333333333 0  0.4 0.3333333333333333 0  0.4333333333333333 0.3333333333333333 0  0.4666666666666667 0.3333333333333333 0  0.5 0.3333333333333333 0  0.5333333333333333 0.33333333333333
[...]
<PointData  Vectors="u_f"> 
<DataArray  type="Float64"  Name="u_f"  NumberOfComponents="3" format="ascii">2.7093001780275532e-06 1.7780204573198885e-09 0.0000000000000000e+00  2.7093001969754498e-06 1.7780247382921666e-09 0.0000000000000000e+00  2.7093001901893200e-06 1.7780349744075073e-09 0.0000000000000000e+00  2.7093001911292149e-06 1.7780402569115422e-09 0.0000000000000000e+00  2.7093001935973469e-06 1.7780391695109733e-09 0.0000000000000000e+00  2.7093001874160393e-06 1.7780342142733642e-09 0.0000000000000000e+00  2.7093002100115173e-06 1.7780131558687781e-09 0.0000000000000000e+00  2.7093001700936327e-06 1.7779964788878014e-09 0.0000000000000000e+00  2.7093001845947826e-06 1.7780212002152171e-09 0.0000000000000000e+00  2.7093001903380183e-06 1.7780428564488811e-09 0.0000000000000000e+00  2.7093001961882648e-06 1.7780716421249808e-09 0.0000000000000000e+00  2.7093001726213417e-06 1.7779121189056939e-09 0.0000000000000000e+00  2.7093001167397728e-06 1.7779905985546886e-09 0.0000000000000000e+00  2.7093001988479212e-06 1.7780126529616004e-09 0.0000000000000000e+00  2.7093001961631114e-06 1.7780304232520479e-09 0.0000000000000000e+00  2.7093001868780039e-06 1.7780004428935743e-09 0.0000000000000000e+00  2.7093001959918074e-06 1.7780122201480932e-09 0.0000000000000000e+00  2.7093001805539611e-06 1.7780156153814064e-09 0.0000000000000000e+00  2.7093001903863738e-06 1.7780343313671988e-09 0.0000000000000000e+00  2.7093001862613640e-06 1.7780205134273509e-09 0.0000000000000000e+00  2.7093001984357075e-06 1.7780239881326834e-09 0.0000000000000000e+00  2.7093001877024313e-06 1.7780062106322915e-09 0.0000000000000000e+00  2.7093002224710602e-06 1.7781329867717910e-09 0.0000000000000000e+00  2.7093002529537838e-06 1.7780521413394458e-09 0.0000000000000000e+00  2.7093002006237901e-06 1.7780289955746272e-09 0.0000000000000000e+00  2.7093001908070442e-06 1.7780319256852084e-09 0.0000000000000000e+00  2.7093001951014606e-06 1.7780220720221840e-09 0.0000000000000000e+00  2.7093001957776233e-06 1.7780080339892951e-09 0.0000000000000000e+00  2.7093001797667761e-06 1.7780312123885991e-09 0.0000000000000000e+00  2.7093001977497328e-06 1.7780087151935201e-09 0.0000000000000000e+00  2.7093001780276074e-06 -4.5499895229705317e-10 0.0000000000000000e+00  4.1705211425778108e-04 2.4372798486469588e-09 0.0000000000000000e+00  4.1705211423632255e-04 2.4373169002804215e-09 0.0000000000000000e+00  4.1705211426251189e-04 2.4373034209369121e-09 0.0000000000000000e+00  4.1705211426269631e-04 2.4373151971072288e-09 0.0000000000000000e+00  4.1705211426593591e-04 2.4373114643075691e-09 0.0000000000000000e+00  4.1705211425783746e-04 2.4372944345272055e-09 0.0000000000000000e+00  4.1705211424234291e-04 2.4372969502015063e-09 0.0000000000000000e+00  4.1705211425861310e-04 2.4373155241026040e-09 0.0000000000000000e+00  4.1705211425905535e-04 2.4373022287482032e-09 0.0000000000000000e+00  4.1705211425022083e-04 2.4372932046082610e-09 0.0000000000000000e+00  4.1705211424517268e-04 2.4373072709388266e-09 0.0000000000000000e+00  4.1705211420437665e-04 2.4372271932842499e-09 0.0000000000000000e+00  4.1705211420064927e-04 2.4372907323020471e-09 0.0000000000000000e+00  4.1705211425898043e-04 2.4373260695950347e-09 0.0000000000000000e+00  4.1705211426729366e-04 2.4373275288227386e-09 0.0000000000000000e+00  4.1705211425839279e-04 2.4373368088343936e-09 0.0000000000000000e+00  4.1705211425484149e-04 2.4373099867568485e-09 0.0000000000000000e+00  4.1705211424351407e-04 2.4373097794573931e-09 0.0000000000000000e+00  4.1705211425706898e-04 2.4373243115612120e-09 0.0000000000000000e+00  4.1705211425517314e-04 2.4373050758631082e-09 0.0000000000000000e+00  4.1705211426441716e-04 2.4373220818994443e-09 0.0000000000000000e+00  4.1705211425176365e-04 2.4373047522287597e-09 0.0000000000000000e+00  4.1705211430850819e-04 2.4373976773538197e-09 0.0000000000000000e+00  4.1705211431798271e-04 2.4373310187611116e-09 0.0000000000000000e+00  4.1705211426055046e-04 2.4373247564093634e-09 0.0000000000000000e+00  4.1705211426107185e-04 2.4373128293181043e-09 0.0000000000000000e+00  4.1705211425288439e-04 2.4373143209634532e-09 0.0000000000000000e+00  4.1705211425750732e-04 2.4373189673118634e-09 0.0000000000000000e+00  4.1705211425211255e-04 2.4373032175405845e-09 0.0000000000000000e+00  4.1705211425397250e-04 2.4372971561999190e-09 0.0000000000000000e+00  4.1705211425778152e-04 -1.5481692220415453e-09 0.0000000000000000e+00  7.5928276699816540e-04 2.4521062403888919e-09 0.0000000000000000e+00  7.5928276700847758e-04 2.4521134554290891e-09 0.0000000000000000e+00  7.5928276701509403e-04 2.4520924329658050e-09 0.0000000000000000e+00  7.5928276700012033e-04 2.4520852347307415e-09 0.0000000000000000e+00  7.5928276700508077e-04 2.4521097333630310e-09 0.0000000000000000e+00  7.5928276700971281e-04 2.4521392771132897e-09 0.0000000000000000e+00  7.5928276702432384e-04 2.4521026602448981e-09 0.0000000000000000e+00  7.5928276699508443e-04 2.4520977421954235e-09 0.0000000000000000e+00  7.5928276700856507e-04 2.4521055937707162e-09 0.0000000000000000e+00  7.5928276699372256e-04 2.4520890537244738e-09 0.0000000000000000e+00  7.5928276700985462e-04 2.4520981901877612e-09 0.0000000000000000e+00  7.5928276693956102e-04 2.4520298690794418e-09 0.0000000000000000e+00  7.5928276696880033e-04 2.4520759597064165e-09 0.0000000000000000e+00  7.5928276700306903e-04 2.4520990998333839e-09 0.0000000000000000e+00  7.5928276699973479e-04 2.4520998126963123e-09 0.0000000000000000e+00  7.5928276701174070e-04 2.4520880108304041e-09 0.0000000000000000e+00  7.5928276699566751e-04 2.4520978610239816e-09 0.0000000000000000e+00  7.5928276701000066e-04 2.4521176548693638e-09 0.0000000000000000e+00  7.5928276700026637e-04 2.4521068115465963e-09 0.0000000000000000e+00  7.5928276701285678e-04 2.4521027383074545e-09 0.0000000000000000e+00  7.5928276700880869e-04 2.4520984389037395e-09 0.0000000000000000e+00  7.5928276700598641e-04 2.4520665275811968e-09 0.0000000000000000e+00  7.5928276705314497e-04 2.4521921596163537e-09 0.0000000000000000e+00  7.5928276707185299e-04 2.4521304364203550e-09 0.0000000000000000e+00  7.5928276700837794e-04 2.4520955951498613e-09 0.0000000000000000e+00  7.5928276699799107e-04 2.4520828959982352e-09 0.0000000000000000e+00  7.5928276699793718e-04 2.4520830584117206e-09 0.0000000000000000e+00  7.5928276699759880e-04 2.4520973493889764e-09 0.0000000000000000e+00  7.5928276699755608e-04 2.4521252533918694e-09 0.0000000000000000e+00  7.5928276702289280e-04 2.4520897567211625e-09 0.0000000000000000e+00  7.5928276699816584e-04 -2.2521208479877663e-09 0.0000000000000000e+00  9.7022658999570337e-04 2.1669516487177881e-09 0.0000000000000000e+00  9.7022658999994411e-04 2.1669477742129045e-09 0.0000000000000000e+00  9.7022658998786784e-04 2.1669644108615604e-09 0.0000000000000000e+00  9.7022658999974961e-04 2.1669439578212574e-09 0.0000000000000000e+00  9.7022658998218922e-04 2.1669250343733792e-09 0.0000000000000000e+00  9.7022658999464475e-04 2.1669479149423465e-09 0.0000000000000000e+00  9.7022658999198303e-04 2.1669736343862822e-09 0.0000000000000000e+00  9.7022659001414630e-04 2.1669747695459568e-09 0.0000000000000000e+00  9.7022658999647358e-04 2.1669660334785318e-09 0.0000000000000000e+00  9.7022658998943841e-04 2.1669625557916433e-09 0.0000000000000000e+00  9.7022659000625612e-04 2.1669707887892603e-09 0.0000000000000000e+00  9.7022658996387553e-04 2.1669806233703265e-09 0.0000000000000000e+00  9.7022659002788097e-04 2.1669561717924113e-09 0.0000000000000000e+00  9.7022658999349094e-04 2.1669647215939031e-09 0.0000000000000000e+00  9.7022659000914769e-04 2.1669420654547855e-09 0.0000000000000000e+00  9.7022658998574193e-04 2.1669476805378368e-09 0.0000000000000000e+00  9.7022659000290680e-04 2.1669362558658645e-09 0.0000000000000000e+00  9.7022658998337230e-04 2.1669254433344387e-09 0.0000000000000000e+00  9.7022658999484338e-04 2.1669563290017263e-09 0.0000000000000000e+00  9.7022658998877315e-04 2.1669314287809521e-09 0.0000000000000000e+00  9.7022658999312839e-04 2.1669395373121597e-09 0.0000000000000000e+00  9.7022658999043631e-04 2.1669574550541026e-09 0.0000000000000000e+00  9.7022659002123763e-04 2.1669391101365038e-09 0.0000000000000000e+00  9.7022659000492602e-04 2.1669498957797156e-09 0.0000000000000000e+00  9.7022659000263771e-04 2.1669736174727283e-09 0.0000000000000000e+00  9.7022658999545096e-04 2.1669604923380686e-09 0.0000000000000000e+00  9.7022658999206392e-04 2.1669490099865407e-09 0.0000000000000000e+00  9.7022659000060266e-04 2.1669509617672916e-09 0.0000000000000000e+00  9.7022658998410977e-04 2.1669476783694325e-09 0.0000000000000000e+00  9.7022658999433445e-04 2.1669614427496930e-09 0.0000000000000000e+00  9.7022658999570358e-04 -2.5487369054526744e-09 0.0000000000000000e+00  1.0134095448996196e-03 1.8447449935893659e-09 0.0000000000000000e+00  1.0134095448993160e-03 1.8447411564894572e-09 0.0000000000000000e+00  1.0134095449014313e-03 1.8447451708564211e-09 0.0000000000000000e+00  1.0134095448884445e-03 1.8447523290844245e-09 0.0000000000000000e+00  1.0134095449078478e-03 1.8447558907969813e-09 0.0000000000000000e+00  1.0134095448953132e-03 1.8447515102949438e-09 0.0000000000000000e+00  1.0134095449102964e-03 1.8447430186066885e-09 0.0000000000000000e+00  1.0134095448951479e-03 1.8447432115946752e-09 0.0000000000000000e+00  1.0134095449074159e-03 1.8447578265315401e-09 0.0000000000000000e+00  1.0134095449059247e-03 1.8447536020461952e-09 0.0000000000000000e+00  1.0134095449076061e-03 1.8447247991312810e-09 0.0000000000000000e+00  1.0134095448935275e-03 1.8447406028958280e-09 0.0000000000000000e+00  1.0134095449035687e-03 1.8447492946193841e-09 0.0000000000000000e+00  1.0134095448974031e-03 1.8447597205243152e-09 0.0000000000000000e+00  1.0134095449143374e-03 1.8447488219072369e-09 0.0000000000000000e+00  1.0134095449020122e-03 1.8447570753962750e-09 0.0000000000000000e+00  1.0134095449064267e-03 1.8447600206314765e-09 0.0000000000000000e+00  1.0134095448899967e-03 1.8447342040430262e-09 0.0000000000000000e+00  1.0134095448929960e-03 1.8447513318352662e-09 0.0000000000000000e+00  1.0134095448983732e-03 1.8447576748516561e-09 0.0000000000000000e+00  1.0134095448976624e-03 1.8447471816177702e-09 0.0000000000000000e+00  1.0134095449041492e-03 1.8447325780650281e-09 0.0000000000000000e+00  1.0134095449035876e-03 1.8447364077923620e-09 0.0000000000000000e+00  1.0134095448946611e-03 1.8447515333884501e-09 0.0000000000000000e+00  1.0134095449106668e-03 1.8447424659888412e-09 0.0000000000000000e+00  1.0134095448959891e-03 1.8447324952319821e-09 0.0000000000000000e+00  1.0134095448943439e-03 1.8447672961701550e-09 0.0000000000000000e+00  1.0134095449195325e-03 1.8447706657620869e-09 0.0000000000000000e+00  1.0134095448986486e-03 1.8447447036737050e-09 0.0000000000000000e+00  1.0134095449044365e-03 1.8447741520141725e-09 0.0000000000000000e+00  1.0134095448996198e-03 -2.4838788480375880e-09 0.0000000000000000e+00  8.8136487301335512e-04 1.4801199408904370e-09 0.0000000000000000e+00  8.8136487300045257e-04 1.4801081496497101e-09 0.0000000000000000e+00  8.8136487300184056e-04 1.4801060422859474e-09 0.0000000000000000e+00  8.8136487300252610e-04 1.4800892940728880e-09 0.0000000000000000e+00  8.8136487300099998e-04 1.4801112677067380e-09 0.0000000000000000e+00  8.8136487300029861e-04 1.4801160437257280e-09 0.0000000000000000e+00  8.8136487298893390e-04 1.4800987247886449e-09 0.0000000000000000e+00  8.8136487300714925e-04 1.4801295605826326e-09 0.0000000000000000e+00  8.8136487302375001e-04 1.4801297268992458e-09 0.0000000000000000e+00  8.8136487299573401e-04 1.4801390457253386e-09 0.0000000000000000e+00  8.8136487300020960e-04 1.4801358407152965e-09 0.0000000000000000e+00  8.8136487302157218e-04 1.4801108705634822e-09 0.0000000000000000e+00  8.8136487298705725e-04 1.4801128919500126e-09 0.0000000000000000e+00  8.8136487300459010e-04 1.4801031778238077e-09 0.0000000000000000e+00  8.8136487300482060e-04 1.4801126279467836e-09 0.0000000000000000e+00  8.8136487300816808e-04 1.4801149337195438e-09 0.0000000000000000e+00  8.8136487300725897e-04 1.4800934023317600e-09 0.0000000000000000e+00  8.8136487299319459e-04 1.4801182816274322e-09 0.0000000000000000e+00  8.8136487299459571e-04 1.4801156797590587e-09 0.0000000000000000e+00  8.8136487300023421e-04 1.4801025863915226e-09 0.0000000000000000e+00  8.8136487298929580e-04 1.4801002092782595e-09 0.0000000000000000e+00  8.8136487300720953e-04 1.4801098104305979e-09 0.0000000000000000e+00  8.8136487301198544e-04 1.4801163950072319e-09 0.0000000000000000e+00  8.8136487299897643e-04 1.4801170847766540e-09 0.0000000000000000e+00  8.8136487300234385e-04 1.4801156862642717e-09 0.0000000000000000e+00  8.8136487300773949e-04 1.4801120572227600e-09 0.0000000000000000e+00  8.8136487300597441e-04 1.4801121218412094e-09 0.0000000000000000e+00  8.8136487300006930e-04 1.4801014171878998e-09 0.0000000000000000e+00  8.8136487300384298e-04 1.4801072260178794e-09 0.0000000000000000e+00  8.8136487300588453e-04 1.4801036340560819e-09 0.0000000000000000e+00  8.8136487301335533e-04 -2.0953107072975091e-09 0.0000000000000000e+00  5.9692418730654308e-04 8.4127318631353754e-10 0.0000000000000000e+00  5.9692418730505751e-04 8.4128661209745964e-10 0.0000000000000000e+00  5.9692418730851633e-04 8.4129217492196623e-10 0.0000000000000000e+00  5.9692418730569155e-04 8.4128055362992990e-10 0.0000000000000000e+00  5.9692418730862020e-04 8.4129013662188196e-10 0.0000000000000000e+00  5.9692418731381353e-04 8.4129980271793053e-10 0.0000000000000000e+00  5.9692418730371256e-04 8.4131131011452864e-10 0.0000000000000000e+00  5.9692418729137423e-04 8.4128746737034341e-10 0.0000000000000000e+00  5.9692418733178234e-04 8.4127014848747045e-10 0.0000000000000000e+00  5.9692418730509600e-04 8.4128031765332706e-10 0.0000000000000000e+00  5.9692418729380815e-04 8.4129001042074908e-10 0.0000000000000000e+00  5.9692418730735895e-04 8.4130152415992990e-10 0.0000000000000000e+00  5.9692418731391349e-04 8.4128877470132299e-10 0.0000000000000000e+00  5.9692418731095058e-04 8.4130591013718836e-10 0.0000000000000000e+00  5.9692418731931770e-04 8.4128707299180316e-10 0.0000000000000000e+00  5.9692418728840417e-04 8.4127602410430380e-10 0.0000000000000000e+00  5.9692418731544016e-04 8.4130017741820134e-10 0.0000000000000000e+00  5.9692418730870303e-04 8.4130200402781144e-10 0.0000000000000000e+00  5.9692418729668812e-04 8.4126579514469738e-10 0.0000000000000000e+00  5.9692418728838497e-04 8.4127638742045180e-10 0.0000000000000000e+00  5.9692418730172316e-04 8.4129061535135122e-10 0.0000000000000000e+00  5.9692418730834026e-04 8.4129644407644061e-10 0.0000000000000000e+00  5.9692418732120920e-04 8.4129423978500373e-10 0.0000000000000000e+00  5.9692418733112206e-04 8.4127931736840272e-10 0.0000000000000000e+00  5.9692418728435803e-04 8.4127451261805514e-10 0.0000000000000000e+00  5.9692418729462467e-04 8.4129152602696600e-10 0.0000000000000000e+00  5.9692418731274721e-04 8.4128906196068859e-10 0.0000000000000000e+00  5.9692418730222080e-04 8.4128837934700079e-10 0.0000000000000000e+00  5.9692418728889477e-04 8.4128660103859748e-10 0.0000000000000000e+00  5.9692418731110823e-04 8.4128925988179518e-10 0.0000000000000000e+00  5.9692418730654308e-04 -1.3900900759790885e-09 0.0000000000000000e+00  2.0926975189552148e-04 -2.9480916430399580e-10 0.0000000000000000e+00  2.0926975189079777e-04 -2.9483384020334048e-10 0.0000000000000000e+00  2.0926975187776168e-04 -2.9483025645437450e-10 0.0000000000000000e+00  2.0926975189982646e-04 -2.9484976444985392e-10 0.0000000000000000e+00  2.0926975187763214e-04 -2.9485751130476929e-10 0.0000000000000000e+00  2.0926975187783855e-04 -2.9482641005743222e-10 0.0000000000000000e+00  2.0926975188475004e-04 -2.9484489623302166e-10 0.0000000000000000e+00  2.0926975188393718e-04 -2.9484113439029631e-10 0.0000000000000000e+00  2.0926975189206981e-04 -2.9482749206409531e-10 0.0000000000000000e+00  2.0926975187499542e-04 -2.9484405112453326e-10 0.0000000000000000e+00  2.0926975186745281e-04 -2.9483981442836142e-10 0.0000000000000000e+00  2.0926975190385530e-04 -2.9482305049437045e-10 0.0000000000000000e+00  2.0926975187922407e-04 -2.9486250409643117e-10 0.0000000000000000e+00  2.0926975187772511e-04 -2.9484699074898858e-10 0.0000000000000000e+00  2.0926975188892552e-04 -2.9486089313463318e-10 0.0000000000000000e+00  2.0926975188114002e-04 -2.9484630181982312e-10 0.0000000000000000e+00  2.0926975187892234e-04 -2.9485773170951843e-10 0.0000000000000000e+00  2.0926975189030934e-04 -2.9484451287268600e-10 0.0000000000000000e+00  2.0926975188656198e-04 -2.9484445887941781e-10 0.0000000000000000e+00  2.0926975187503390e-04 -2.9484730858285544e-10 0.0000000000000000e+00  2.0926975188796231e-04 -2.9483682773597929e-10 0.0000000000000000e+00  2.0926975188220704e-04 -2.9483709749903234e-10 0.0000000000000000e+00  2.0926975189018986e-04 -2.9484159967565864e-10 0.0000000000000000e+00  2.0926975189594827e-04 -2.9484476339115048e-10 0.0000000000000000e+00  2.0926975188601029e-04 -2.9483399044665654e-10 0.0000000000000000e+00  2.0926975187160915e-04 -2.9486194331996250e-10 0.0000000000000000e+00  2.0926975187802262e-04 -2.9485288710118848e-10 0.0000000000000000e+00  2.0926975187275670e-04 -2.9482758461430326e-10 0.0000000000000000e+00  2.0926975189398600e-04 -2.9484881569163783e-10 0.0000000000000000e+00  2.0926975187002299e-04 -2.9484721069295179e-10 0.0000000000000000e+00  2.0926975189552148e-04 -3.8419903522794980e-10 0.0000000000000000e+00  -2.1456950222504038e-04 -1.8837309385955070e-09 0.0000000000000000e+00  -2.1456950221742131e-04 -1.8837284668313942e-09 0.0000000000000000e+00  -2.1456950223465936e-04 -1.8837322775309799e-09 0.0000000000000000e+00  -2.1456950221346045e-04 -1.8837336021007740e-09 0.0000000000000000e+00  -2.1456950222901446e-04 -1.8837283585738072e-09 0.0000000000000000e+00  -2.1456950223589470e-04 -1.8837496104000609e-09 0.0000000000000000e+00  -2.1456950224371625e-04 -1.8837409892580662e-09 0.0000000000000000e+00  -2.1456950222751556e-04 -1.8837188623180290e-09 0.0000000000000000e+00  -2.1456950222429542e-04 -1.8837002086738615e-09 0.0000000000000000e+00  -2.1456950221209793e-04 -1.8837170552782681e-09 0.0000000000000000e+00  -2.1456950224444852e-04 -1.8837520889946474e-09 0.0000000000000000e+00  -2.1456950222057709e-04 -1.8837149137079269e-09 0.0000000000000000e+00  -2.1456950222192535e-04 -1.8837173261661809e-09 0.0000000000000000e+00  -2.1456950222723648e-04 -1.8837154973881665e-09 0.0000000000000000e+00  -2.1456950224443290e-04 -1.8837257427192257e-09 0.0000000000000000e+00  -2.1456950220771737e-04 -1.8837209053343927e-09 0.0000000000000000e+00  -2.1456950223131395e-04 -1.8837124057314615e-09 0.0000000000000000e+00  -2.1456950221826113e-04 -1.8837204913317931e-09 0.0000000000000000e+00  -2.1456950222684096e-04 -1.8837322570395588e-09 0.0000000000000000e+00  -2.1456950223982965e-04 -1.8837360504461199e-09 0.0000000000000000e+00  -2.1456950220756315e-04 -1.8837271164575883e-09 0.0000000000000000e+00  -2.1456950222857650e-04 -1.8837010828118630e-09 0.0000000000000000e+00  -2.1456950223066554e-04 -1.8837353760723687e-09 0.0000000000000000e+00  -2.1456950223489897e-04 -1.8837233550892014e-09 0.0000000000000000e+00  -2.1456950222217028e-04 -1.8837194488714043e-09 0.0000000000000000e+00  -2.1456950222757969e-04 -1.8837026595128724e-09 0.0000000000000000e+00  -2.1456950221880123e-04 -1.8837376427054305e-09 0.0000000000000000e+00  -2.1456950223822970e-04 -1.8837265741396617e-09 0.0000000000000000e+00  -2.1456950222602320e-04 -1.8837252748317782e-09 0.0000000000000000e+00  -2.1456950223569662e-04 -1.8837284826065358e-09 0.0000000000000000e+00  -2.1456950222504054e-04 8.3116970235979889e-10 0.0000000000000000e+00  -6.0130785942145830e-04 -3.5206612582954280e-09 0.0000000000000000e+00  -6.0130785942898060e-04 -3.5206409381783113e-09 0.0000000000000000e+00  -6.0130785943428940e-04 -3.5206655304856685e-09 0.0000000000000000e+00  -6.0130785942562933e-04 -3.5206609903890712e-09 0