<?xml version="1.0"?>
<VTKFile type="UnstructuredGrid"  version="0.1"  >
<UnstructuredGrid>
<Piece  NumberOfPoints="961" NumberOfCells="1800">
<Points>
<DataArray  type="Float64"  NumberOfComponents="3"  format="ascii">0 0 0  0.03333333333333333 0 0  0.06666666666666667 0 0  0.1 0 0  0.1333333333333333 0 0  0.1666666666666667 0 0  0.2 0 0  0.2333333333333333 0 0  0.2666666666666667 0 0  0.3 0 0  0.3333333333333333 0 0  0.3666666666666666 0 0  0.4 0 0  0.4333333333333333 0 0  0.4666666666666667 0 0  0.5 0 0  0.5333333333333333 0 0  0.5666666666666667 0 0  0.6 0 0  0.6333333333333333 0 0  0.6666666666666666 0 0  0.7 0 0  0.7333333333333333 0 0  0.7666666666666667 0 0  0.8 0 0  0.8333333333333334 0 0  0.8666666666666667 0 0  0.9 0 0  0.9333333333333333 0 0  0.9666666666666667 0 0  1 0 0  0 0.03333333333333333 0  0.03333333333333333 0.03333333333333333 0  0.06666666666666667 0.03333333333333333 0  0.1 0.03333333333333333 0  0.1333333333333333 0.03333333333333333 0  0.1666666666666667 0.03333333333333333 0  0.2 0.03333333333333333 0  0.2333333333333333 0.03333333333333333 0  0.2666666666666667 0.03333333333333333 0  0.3 0.03333333333333333 0  0.3333333333333333 0.03333333333333333 0  0.3666666666666666 0.03333333333333333 0  0.4 0.03333333333333333 0  0.4333333333333333 0.03333333333333333 0  0.4666666666666667 0.03333333333333333 0  0.5 0.03333333333333333 0  0.5333333333333333 0.03333333333333333 0  0.5666666666666667 0.03333333333333333 0  0.6 0.03333333333333333 0  0.6333333333333333 0.03333333333333333 0  0.6666666666666666 0.03333333333333333 0  0.7 0.03333333333333333 0  0.7333333333333333 0.03333333333333333 0  0.7666666666666667 0.03333333333333333 0  0.8 0.03333333333333333 0  0.8333333333333334 0.03333333333333333 0  0.8666666666666667 0.03333333333333333 0  0.9 0.03333333333333333 0  0.9333333333333333 0.03333333333333333 0  0.9666666666666667 0.03333333333333333 0  1 0.03333333333333333 0  0 0.06666666666666667 0  0.03333333333333333 0.06666666666666667 0  0.06666666666666667 0.06666666666666667 0  0.1 0.06666666666666667 0  0.1333333333333333 0.06666666666666667 0  0.1666666666666667 0.06666666666666667 0  0.2 0.06666666666666667 0  0.2333333333333333 0.06666666666666667 0  0.2666666666666667 0.06666666666666667 0  0.3 0.06666666666666667 0  0.3333333333333333 0.06666666666666667 0  0.3666666666666666 0.06666666666666667 0  0.4 0.06666666666666667 0  0.4333333333333333 0.06666666666666667 0  0.4666666666666667 0.06666666666666667 0  0.5 0.06666666666666667 0  0.5333333333333333 0.06666666666666667 0  0.5666666666666667 0.06666666666666667 0  0.6 0.06666666666666667 0  0.6333333333333333 0.06666666666666667 0  0.6666666666666666 0.06666666666666667 0  0.7 0.06666666666666667 0  0.7333333333333333 0.06666666666666667 0  0.7666666666666667 0.06666666666666667 0  0.8 0.06666666666666667 0  0.8333333333333334 0.06666666666666667 0  0.8666666666666667 0.06666666666666667 0  0.9 0.06666666666666667 0  0.9333333333333333 0.06666666666666667 0  0.9666666666666667 0.06666666666666667 0  1 0.06666666666666667 0  0 0.1 0  0.03333333333333333 0.1 0  0.06666666666666667 0.1 0  0.1 0.1 0  0.1333333333333333 0.1 0  0.1666666666666667 0.1 0  0.2 0.1 0  0.2333333333333333 0.1 0  0.2666666666666667 0.1 0  0.3 0.1 0  0.3333333333333333 0.1 0  0.3666666666666666 0.1 0  0.4 0.1 0  0.4333333333333333 0.1 0  0.4666666666666667 0.1 0  0.5 0.1 0  0.5333333333333333 0.1 0  0.5666666666666667 0.1 0  0.6 0.1 0  0.6333333333333333 0.1 0  0.6666666666666666 0.1 0  0.7 0.1 0  0.7333333333333333 0.1 0  0.7666666666666667 0.1 0  0.8 0.1 0  0.8333333333333334 0.1 0  0.8666666666666667 0.1 0  0.9 0.1 0  0.9333333333333333 0.1 0  0.9666666666666667 0.1 0  1 0.1 0  0 0.1333333333333333 0  0.03333333333333333 0.1333333333333333 0  0.06666666666666667 0.1333333333333333 0  0.1 0.1333333333333333 0  0.1333333333333333 0.1333333333333333 0  0.1666666666666667 0.1333333333333333 0  0.2 0.1333333333333333 0  0.2333333333333333 0.1333333333333333 0  0.2666666666666667 0.1333333333333333 0  0.3 0.1333333333333333 0  0.3333333333333333 0.1333333333333333 0  0.3666666666666666 0.1333333333333333 0  0.4 0.1333333333333333 0  0.4333333333333333 0.1333333333333333 0  0.4666666666666667 0.1333333333333333 0  0.5 0.1333333333333333 0  0.5333333333333333 0.1333333333333333 0  0.5666666666666667 0.1333333333333333 0  0.6 0.1333333333333333 0  0.6333333333333333 0.1333333333333333 0  0.6666666666666666 0.1333333333333333 0  0.7 0.1333333333333333 0  0.7333333333333333 0.1333333333333333 0  0.7666666666666667 0.1333333333333333 0  0.8 0.1333333333333333 0  0.8333333333333334 0.1333333333333333 0  0.8666666666666667 0.1333333333333333 0  0.9 0.1333333333333333 0  0.9333333333333333 0.1333333333333333 0  0.9666666666666667 0.1333333333333333 0  1 0.1333333333333333 0  0 0.1666666666666667 0  0.03333333333333333 0.1666666666666667 0  0.06666666666666667 0.1666666666666667 0  0.1 0.1666666666666667 0  0.1333333333333333 0.1666666666666667 0  0.1666666666666667 0.1666666666666667 0  0.2 0.1666666666666667 0  0.2333333333333333 0.1666666666666667 0  0.2666666666666667 0.1666666666666667 0  0.3 0.1666666666666667 0  0.3333333333333333 0.1666666666666667 0  0.3666666666666666 0.1666666666666667 0  0.4 0.1666666666666667 0  0.4333333333333333 0.1666666666666667 0  0.4666666666666667 0.1666666666666667 0  0.5 0.1666666666666667 0  0.5333333333333333 0.1666666666666667 0  0.5666666666666667 0.1666666666666667 0  0.6 0.1666666666666667 0  0.6333333333333333 0.1666666666666667 0  0.6666666666666666 0.1666666666666667 0  0.7 0.1666666666666667 0  0.7333333333333333 0.1666666666666667 0  0.7666666666666667 0.1666666666666667 0  0.8 0.1666666666666667 0  0.8333333333333334 0.1666666666666667 0  0.8666666666666667 0.1666666666666667 0  0.9 0.1666666666666667 0  0.9333333333333333 0.1666666666666667 0  0.9666666666666667 0.1666666666666667 0  1 0.1666666666666667 0  0 0.2 0  0.03333333333333333 0.2 0  0.06666666666666667 0.2 0  0.1 0.2 0  0.1333333333333333 0.2 0  0.1666666666666667 0.2 0  0.2 0.2 0  0.2333333333333333 0.2 0  0.2666666666666667 0.2 0  0.3 0.2 0  0.3333333333333333 0.2 0  0.3666666666666666 0.2 0  0.4 0.2 0  0.4333333333333333 0.2 0  0.4666666666666667 0.2 0  0.5 0.2 0  0.5333333333333333 0.2 0  0.5666666666666667 0.2 0  0.6 0.2 0  0.6333333333333333 0.2 0  0.6666666666666666 0.2 0  0.7 0.2 0  0.7333333333333333 0.2 0  0.7666666666666667 0.2 0  0.8 0.2 0  0.8333333333333334 0.2 0  0.8666666666666667 0.2 0  0.9 0.2 0  0.9333333333333333 0.2 0  0.9666666666666667 0.2 0  1 0.2 0  0 0.2333333333333333 0  0.03333333333333333 0.2333333333333333 0  0.06666666666666667 0.2333333333333333 0  0.1 0.2333333333333333 0  0.1333333333333333 0.2333333333333333 0  0.1666666666666667 0.2333333333333333 0  0.2 0.2333333333333333 0  0.2333333333333333 0.2333333333333333 0  0.2666666666666667 0.2333333333333333 0  0.3 0.2333333333333333 0  0.3333333333333333 0.2333333333333333 0  0.3666666666666666 0.2333333333333333 0  0.4 0.2333333333333333 0  0.4333333333333333 0.2333333333333333 0  0.4666666666666667 0.2333333333333333 0  0.5 0.2333333333333333 0  0.5333333333333333 0.2333333333333333 0  0.5666666666666667 0.2333333333333333 0  0.6 0.2333333333333333 0  0.6333333333333333 0.2333333333333333 0  0.6666666666666666 0.2333333333333333 0  0.7 0.2333333333333333 0  0.7333333333333333 0.2333333333333333 0  0.7666666666666667 0.2333333333333333 0  0.8 0.2333333333333333 0  0.8333333333333334 0.2333333333333333 0  0.8666666666666667 0.2333333333333333 0  0.9 0.2333333333333333 0  0.9333333333333333 0.2333333333333333 0  0.9666666666666667 0.2333333333333333 0  1 0.2333333333333333 0  0 0.2666666666666667 0  0.03333333333333333 0.2666666666666667 0  0.06666666666666667 0.2666666666666667 0  0.1 0.2666666666666667 0  0.1333333333333333 0.2666666666666667 0  0.1666666666666667 0.2666666666666667 0  0.2 0.2666666666666667 0  0.2333333333333333 0.2666666666666667 0  0.2666666666666667 0.2666666666666667 0  0.3 0.2666666666666667 0  0.3333333333333333 0.2666666666666667 0  0.3666666666666666 0.2666666666666667 0  0.4 0.2666666666666667 0  0.4333333333333333 0.2666666666666667 0  0.4666666666666667 0.2666666666666667 0  0.5 0.2666666666666667 0  0.5333333333333333 0.2666666666666667 0  0.5666666666666667 0.2666666666666667 0  0.6 0.2666666666666667 0  0.6333333333333333 0.2666666666666667 0  0.6666666666666666 0.2666666666666667 0  0.7 0.2666666666666667 0  0.7333333333333333 0.2666666666666667 0  0.7666666666666667 0.2666666666666667 0  0.8 0.2666666666666667 0  0.8333333333333334 0.2666666666666667 0  0.8666666666666667 0.2666666666666667 0  0.9 0.2666666666666667 0  0.9333333333333333 0.2666666666666667 0  0.9666666666666667 0.2666666666666667 0  1 0.2666666666666667 0  0 0.3 0  0.03333333333333333 0.3 0  0.06666666666666667 0.3 0  0.1 0.3 0  0.1333333333333333 0.3 0  0.1666666666666667 0.3 0  0.2 0.3 0  0.2333333333333333 0.3 0  0.2666666666666667 0.3 0  0.3 0.3 0  0.3333333333333333 0.3 0  0.3666666666666666 0.3 0  0.4 0.3 0  0.4333333333333333 0.3 0  0.4666666666666667 0.3 0  0.5 0.3 0  0.5333333333333333 0.3 0  0.5666666666666667 0.3 0  0.6 0.3 0  0.6333333333333333 0.3 0  0.6666666666666666 0.3 0  0.7 0.3 0  0.7333333333333333 0.3 0  0.7666666666666667 0.3 0  0.8 0.3 0  0.8333333333333334 0.3 0  0.8666666666666667 0.3 0  0.9 0.3 0  0.9333333333333333 0.3 0  0.9666666666666667 0.3 0  1 0.3 0  0 0.3333333333333333 0  0.03333333333333333 0.3333333333333333 0  0.06666666666666667 0.3333333333333333 0  0.1 0.3333333333333333 0  0.1333333333333333 0.3333333333333333 0  0.1666666666666667 0.3333333333333333 0  0.2 0.3333333333333333 0  0.2333333333333333 0.3333333333333333 0  0.2666666666666667 0.3333333333333333 0  0.3 0.3333333333333333 0  0.3333333333333333 0.3333333333333333 0  0.3666666666666666 0.3333333333333333 0  0.4 0.3333333333333333 0  0.4333333333333333 0.3333333333333333 0  0.4666666666666667 0.3333333333333333 0  0.5 0.3333333333333333 0  0.5333333333333333 0.33333333333333
[...]
<PointData  Scalars="q_f"> 
<DataArray  type="Float64"  Name="q_f"  format="ascii">9.9873977897309363e-01  9.9873977897317046e-01  9.9873977897312249e-01  9.9873977897314026e-01  9.9873977897310451e-01  9.9873977897328836e-01  9.9873977897312449e-01  9.9873977897323496e-01  9.9873977897314525e-01  9.9873977897323818e-01  9.9873977897328992e-01  9.9873977897323007e-01  9.9873977897596478e-01  9.9873977897343491e-01  9.9873977897293653e-01  9.9873977897328658e-01  9.9873977897313737e-01  9.9873977897305333e-01  9.9873977897310828e-01  9.9873977897307731e-01  9.9873977897312816e-01  9.9873977897320032e-01  9.9873977897299193e-01  9.9873977897022082e-01  9.9873977897291200e-01  9.9873977897302457e-01  9.9873977897308042e-01  9.9873977897295874e-01  9.9873977897321986e-01  9.9873977897304222e-01  9.9873977897309363e-01  9.9884873010754538e-01  9.9884873010772401e-01  9.9884873010753039e-01  9.9884873010757225e-01  9.9884873010743458e-01  9.9884873010763364e-01  9.9884873010754094e-01  9.9884873010758313e-01  9.9884873010759423e-01  9.9884873010756536e-01  9.9884873010777087e-01  9.9884873011037689e-01  9.9884873011020536e-01  9.9884873010758457e-01  9.9884873010752451e-01  9.9884873010751540e-01  9.9884873010743103e-01  9.9884873010756392e-01  9.9884873010761566e-01  9.9884873010749442e-01  9.9884873010744279e-01  9.9884873010732100e-01  9.9884873010468977e-01  9.9884873010482222e-01  9.9884873010739006e-01  9.9884873010757003e-01  9.9884873010764630e-01  9.9884873010752850e-01  9.9884873010748321e-01  9.9884873010747266e-01  9.9884873010754538e-01  9.9915674563727586e-01  9.9915674563723722e-01  9.9915674563729284e-01  9.9915674563737589e-01  9.9915674563734158e-01  9.9915674563733670e-01  9.9915674563729062e-01  9.9915674563720092e-01  9.9915674563743251e-01  9.9915674563739931e-01  9.9915674563734513e-01  9.9915674564054913e-01  9.9915674563972268e-01  9.9915674563744583e-01  9.9915674563732237e-01  9.9915674563716583e-01  9.9915674563732537e-01  9.9915674563742185e-01  9.9915674563730528e-01  9.9915674563726486e-01  9.9915674563715684e-01  9.9915674563711310e-01  9.9915674563413315e-01  9.9915674563486356e-01  9.9915674563715573e-01  9.9915674563730550e-01  9.9915674563733070e-01  9.9915674563731205e-01  9.9915674563739176e-01  9.9915674563726897e-01  9.9915674563727586e-01  9.9961056864013420e-01  9.9961056864002285e-01  9.9961056864007525e-01  9.9961056863999276e-01  9.9961056864003894e-01  9.9961056864008691e-01  9.9961056863996001e-01  9.9961056863998843e-01  9.9961056863994979e-01  9.9961056863998543e-01  9.9961056864017050e-01  9.9961056864295150e-01  9.9961056863962583e-01  9.9961056864013131e-01  9.9961056864001596e-01  9.9961056863984288e-01  9.9961056864010789e-01  9.9961056864009679e-01  9.9961056864004383e-01  9.9961056863997888e-01  9.9961056863998510e-01  9.9961056863972175e-01  9.9961056863717179e-01  9.9961056864017928e-01  9.9961056863994302e-01  9.9961056863989650e-01  9.9961056864003506e-01  9.9961056864005482e-01  9.9961056863999487e-01  9.9961056864012954e-01  9.9961056864013420e-01  1.0001317305296464e+00  1.0001317305296789e+00  1.0001317305295465e+00  1.0001317305294224e+00  1.0001317305294479e+00  1.0001317305295077e+00  1.0001317305294746e+00  1.0001317305295676e+00  1.0001317305293986e+00  1.0001317305295634e+00  1.0001317305295840e+00  1.0001317305295312e+00  1.0001317305294724e+00  1.0001317305295554e+00  1.0001317305295521e+00  1.0001317305292787e+00  1.0001317305295725e+00  1.0001317305295996e+00  1.0001317305295105e+00  1.0001317305295201e+00  1.0001317305294735e+00  1.0001317305294342e+00  1.0001317305293231e+00  1.0001317305296962e+00  1.0001317305292414e+00  1.0001317305295985e+00  1.0001317305294379e+00  1.0001317305295037e+00  1.0001317305294837e+00  1.0001317305295867e+00  1.0001317305296464e+00  1.0006301179729906e+00  1.0006301179730821e+00  1.0006301179730719e+00  1.0006301179730002e+00  1.0006301179730048e+00  1.0006301179730661e+00  1.0006301179730375e+00  1.0006301179729162e+00  1.0006301179730890e+00  1.0006301179729897e+00  1.0006301179730885e+00  1.0006301179730137e+00  1.0006301179731101e+00  1.0006301179729442e+00  1.0006301179730728e+00  1.0006301179730295e+00  1.0006301179729387e+00  1.0006301179730948e+00  1.0006301179731023e+00  1.0006301179729136e+00  1.0006301179731525e+00  1.0006301179729360e+00  1.0006301179732036e+00  1.0006301179729380e+00  1.0006301179729138e+00  1.0006301179729917e+00  1.0006301179729820e+00  1.0006301179729824e+00  1.0006301179729178e+00  1.0006301179729151e+00  1.0006301179729906e+00  1.0010195541651867e+00  1.0010195541651534e+00  1.0010195541653029e+00  1.0010195541651696e+00  1.0010195541652513e+00  1.0010195541652591e+00  1.0010195541653715e+00  1.0010195541653730e+00  1.0010195541651123e+00  1.0010195541651878e+00  1.0010195541653790e+00  1.0010195541653830e+00  1.0010195541651603e+00  1.0010195541652986e+00  1.0010195541653379e+00  1.0010195541651066e+00  1.0010195541652300e+00  1.0010195541652378e+00  1.0010195541652223e+00  1.0010195541652958e+00  1.0010195541651024e+00  1.0010195541652804e+00  1.0010195541652667e+00  1.0010195541650597e+00  1.0010195541653084e+00  1.0010195541652609e+00  1.0010195541653262e+00  1.0010195541652338e+00  1.0010195541653242e+00  1.0010195541653308e+00  1.0010195541651867e+00  1.0012327003361825e+00  1.0012327003360784e+00  1.0012327003362571e+00  1.0012327003361647e+00  1.0012327003361692e+00  1.0012327003361634e+00  1.0012327003363044e+00  1.0012327003360666e+00  1.0012327003362054e+00  1.0012327003361658e+00  1.0012327003362251e+00  1.0012327003363251e+00  1.0012327003359782e+00  1.0012327003361827e+00  1.0012327003360095e+00  1.0012327003361501e+00  1.0012327003360086e+00  1.0012327003360562e+00  1.0012327003361143e+00  1.0012327003359756e+00  1.0012327003361636e+00  1.0012327003362691e+00  1.0012327003362502e+00  1.0012327003361126e+00  1.0012327003360844e+00  1.0012327003361490e+00  1.0012327003361574e+00  1.0012327003361559e+00  1.0012327003361712e+00  1.0012327003363306e+00  1.0012327003361825e+00  1.0012327003363544e+00  1.0012327003363690e+00  1.0012327003362909e+00  1.0012327003362449e+00  1.0012327003361821e+00  1.0012327003363786e+00  1.0012327003364905e+00  1.0012327003363726e+00  1.0012327003364252e+00  1.0012327003362618e+00  1.0012327003363475e+00  1.0012327003363792e+00  1.0012327003361308e+00  1.0012327003362362e+00  1.0012327003363752e+00  1.0012327003362327e+00  1.0012327003361172e+00  1.0012327003362773e+00  1.0012327003361581e+00  1.0012327003363561e+00  1.0012327003362023e+00  1.0012327003364132e+00  1.0012327003364760e+00  1.0012327003364456e+00  1.0012327003363568e+00  1.0012327003362795e+00  1.0012327003363553e+00  1.0012327003363115e+00  1.0012327003363106e+00  1.0012327003362733e+00  1.0012327003363544e+00  1.0010195541654412e+00  1.0010195541655060e+00  1.0010195541651630e+00  1.0010195541653422e+00  1.0010195541653688e+00  1.0010195541652815e+00  1.0010195541654250e+00  1.0010195541654061e+00  1.0010195541654945e+00  1.0010195541653597e+00  1.0010195541653573e+00  1.0010195541652906e+00  1.0010195541655262e+00  1.0010195541654203e+00  1.0010195541655182e+00  1.0010195541652869e+00  1.0010195541653419e+00  1.0010195541653855e+00  1.0010195541653375e+00  1.0010195541653126e+00  1.0010195541655222e+00  1.0010195541653581e+00  1.0010195541653364e+00  1.0010195541653959e+00  1.0010195541654481e+00  1.0010195541654574e+00  1.0010195541654210e+00  1.0010195541652973e+00  1.0010195541652815e+00  1.0010195541655615e+00  1.0010195541654412e+00  1.0006301179728201e+00  1.0006301179726165e+00  1.0006301179727619e+00  1.0006301179725818e+00  1.0006301179728072e+00  1.0006301179729107e+00  1.0006301179732031e+00  1.0006301179730359e+00  1.0006301179728490e+00  1.0006301179728319e+00  1.0006301179730432e+00  1.0006301179730526e+00  1.0006301179729897e+00  1.0006301179729438e+00  1.0006301179730033e+00  1.0006301179729176e+00  1.0006301179729811e+00  1.0006301179730388e+00  1.0006301179730734e+00  1.0006301179730153e+00  1.0006301179728745e+00  1.0006301179728427e+00  1.0006301179729975e+00  1.0006301179729418e+00  1.0006301179729893e+00  1.0006301179730857e+00  1.0006301179728205e+00  1.0006301179729413e+00  1.0006301179729131e+00  1.0006301179727659e+00  1.0006301179728201e+00  1.0001317305294533e+00  1.0001317305269395e+00  1.0001317305265391e+00  1.0001317305266917e+00  1.0001317305295427e+00  1.0001317305297719e+00  1.0001317305297710e+00  1.0001317305297450e+00  1.0001317305299262e+00  1.0001317305297142e+00  1.0001317305297845e+00  1.0001317305296389e+00  1.0001317305296376e+00  1.0001317305296333e+00  1.0001317305297415e+00  1.0001317305297073e+00  1.0001317305297754e+00  1.0001317305298028e+00  1.0001317305298132e+00  1.0001317305296815e+00  1.0001317305296553e+00  1.0001317305297390e+00  1.0001317305297612e+00  1.0001317305298287e+00  1.0001317305298358e+00  1.0001317305296085e+00  1.0001317305297084e+00  1.0001317305297206e+00  1.0001317305296102e+00  1.0001317305299033e+00  1.0001317305294533e+00  9.9961056863712705e-01  9.9961056863717090e-01  9.9961056863745457e-01  9.9961056864029052e-01  9.9961056863996034e-01  9.9961056863999809e-01  9.9961056863983289e-01  9.9961056863991871e-01  9.9961056863985920e-01  9.9961056864001907e-01  9.9961056863990938e-01  9.9961056864000697e-01  9.9961056863982645e-01  9.9961056864004671e-01  9.9961056863992181e-01  9.9961056863990061e-01  9.9961056863994913e-01  9.9961056863992559e-01  9.9961056863989572e-01  9.9961056864015208e-01  9.9961056863982156e-01  9.9961056863998354e-01  9.9961056863988895e-01  9.9961056863993425e-01  9.9961056863984199e-01  9.9961056864000786e-01  9.9961056863997555e-01  9.9961056863985653e-01  9.9961056863996578e-01  9.9961056863989006e-01  9.9961056863712705e-01  9.9915674563695356e-01  9.9915674563710577e-01  9.9915674563713597e-01  9.9915674563737178e-01  9.9915674563718182e-01  9.9915674563723544e-01  9.9915674563748291e-01  9.9915674563721546e-01  9.9915674563714940e-01  9.9915674563740875e-01  9.9915674563740819e-01  9.9915674563740009e-01  9.9915674563733869e-01  9.9915674563741619e-01  9.9915674563733403e-01  9.9915674563727463e-01  9.9915674563723500e-01  9.9915674563738510e-01  9.9915674563732948e-01  9.9915674563725709e-01  9.9915674563740031e-01  9.9915674563730394e-01  9.9915674563744938e-01  9.9915674563741519e-01  9.9915674563744594e-01  9.9915674563730905e-01  9.9915674563735712e-01  9.9915674563735479e-01  9.9915674563726997e-01  9.9915674563738455e-01  9.9915674563695356e-01  9.9884873010759945e-01  9.9884873010752062e-01  9.9884873010755559e-01  9.9884873010742248e-01  9.9884873010755826e-01  9.9884873010758313e-01  9.9884873010744901e-01  9.9884873010757291e-01  9.9884873010755537e-01  9.9884873010757103e-01  9.9884873010758668e-01  9.9884873010755360e-01  9.9884873010748942e-01  9.9884873010760167e-01  9.9884873010743991e-01  9.9884873010755504e-01  9.9884873010736630e-01  9.9884873010756281e-01  9.9884873010730346e-01  9.9884873010754793e-01  9.9884873010747832e-01  9.9884873010741915e-01  9.9884873010757924e-01  9.9884873010739050e-01  9.9884873010747288e-01  9.9884873010761821e-01  9.9884873010749431e-01  9.9884873010742603e-01  9.9884873010741071e-01  9.9884873010737119e-01  9.9884873010759945e-01  9.9873977897320254e-01  9.9873977897326183e-01  9.9873977897310695e-01  9.9873977897307287e-01  9.9873977897307686e-01  9.9873977897316568e-01  9.9873977897323096e-01  9.9873977897314470e-01  9.9873977897320765e-01  9.9873977897315536e-01  9.9873977897319421e-01  9.9873977897315702e-01  9.9873977897323429e-01  9.9873977897313670e-01  9.9873977897307653e-01  9.9873977897316113e-01  9.9873977897311739e-01  9.9873977897309418e-01  9.9873977897312594e-01  9.9873977897297417e-01  9.9873977897306887e-01  9.9873977897313493e-01  9.9873977897301491e-01  9.9873977897332333e-01  9.9873977897301303e-01  9.9873977897319266e-01  9.9873977897310351e-01  9.9873977897320454e-01  9.9873977897301991e-01  9.9873977897305988e-01  9.9873977897320254e-01  9.9884873010764463e-01  9.9884873010770836e-01  9.9884873010746367e-01  9.9884873010750663e-01  9.9884873010747299e-01  9.9884873010760689e-01  9.9884873010745701e-01  9.9884873010757924e-01  9.9884873010738273e-01  9.9884873010742659e-01  9.9884873010742559e-01  9.9884873010742192e-01  9.9884873010752917e-01  9.9884873010747022e-01  9.9884873010738107e-01  9.9884873010743092e-01  9.9884873010744935e-01  9.9884873010750208e-01  9.9884873010731878e-01  9.9884873010732489e-01  9.9884873010750130e-01  9.9884873010753294e-01  9.9884873010770148e-01  9.9884873010748088e-01  9.9884873010743547e-01  9.9884873010753905e-01  9.9884873010734521e-01  9.9884873010739217e-01  9.9884873010737718e-01  9.9884873010741160e-01  9.9884873010764463e-01  9.9915674563731238e-01  9.9915674563730272e-01  9.9915674563750312e-01  9.9915674563737356e-01  9.9915674563730472e-01  9.9915674563738699e-01  9.9915674563737189e-01  9.9915674563734591e-01  9.9915674563747570e-01  9.9915674563731838e-01  9.9915674563741086e-01  9.9915674563751067e-01  9.9915674563739687e-01  9.9915674563742440e-01  9.9915674563728829e-01  9.9915674563731349e-01  9.9915674563739276e-01  9.9915674563739643e-01  9.9915674563734358e-01  9.9915674563733725e-01  9.9915674563721379e-01  9.9915674563723467e-01  9.9915674563732992e-01  9.9915674563745327e-01  9.9915674563725065e-01  9.9915674563743639e-01  9.9915674563713452e-01  9.9915674563737489e-01  9.9915674563731838e-01  9.9915674563724455e-01  9.9915674563731238e-01  9.9961056863994802e-01  9.9961056864007780e-01  9.9961056864003184e-01  9.9961056864006803e-01  9.9961056864007702e-01  9.9961056864004227e-01  9.9961056864003939e-01  9.9961056864005871e-01  9.9961056864012288e-01  9.9961056863998077e-01  9.9961056864000442e-01  9.9961056863989761e-01  9.9961056863999098e-01  9.9961056863991482e-01  9.9961056864005926e-01  9.9961056864005926e-01  9.9961056863999687e-01  9.9961056864009457e-01  9.9961056864008058e-01  9.9961056864000819e-01  9.9961056864003450e-01  9.9961056863992326e-01  9.9961056864013953e-01  9.9961056864003761e-01  9.9961056863988362e-01  9.9961056864001341e-01  9.9961056864004594e-01  9.9961056863988063e-01  9.9961056864023046e-01  9.9961056864006881e-01  9.9961056863994802e-01  1.0001317305295836e+00  1.0001317305297324e+00  1.0001317305295032e+00  1.0001317305294215e+00  1.0001317305292856e+00  1.0001317305294379e+00  1.0001317305295665e+00  1.0001317305296871e+00  1.0001317305296127e+00  1.0001317305294763e+00  1.0001317305294355e+00  1.0001317305293560e+00  1.0001317305295232e+00  1.0001317305294677e+00  1.0001317305294886e+00  1.0001317305295827e+00  1.0001317305295432e+00  1.0001317305294919e+00  1.0001317305296384e+00  1.0001317305293820e+00  1.0001317305294657e+00  1.0001317305295372e+00  1.0001317305295039e+00  1.0001317305294437e+00  1.0001317305294288e+00  1.0001317305294466e+00  1.0001317305294974e+00  1.0001317305295889e+00  1.0001317305296287e+00  1.0001317305293269e+00  1.0001317305295836e+00  1.0006301179731449e+00  1.0006301179729533e+00  1.0006301179730381e+00  1.0006301179732040e+00  1.0006301179731008e+00  1.0006301179728310e+00  1.0006301179730188e+00  1.0006301179730026e+00  1.0006301179731318e+00  1.0006301179730721e+00  1.0006301179731494e+00  1.0006301179728947e+00  1.0006301179729480e+00  1.0006301179730432e+00  1.0006301179728676e+00  1.0006301179729880e+00  1.0006301179730672e+00  1.0006301179730541e+00  1.0006301179731114e+00  1.0006301179729757e+00  1.0006301179730495e+00  1.0006301179728909e+00  1.0006301179730135e+00  1.0006301179730517e+00  1.0006301179730095e+00  1.0006301179729977e+00  1.0006301179728998e+00  1.0006301179729771e+00  1.0006301179730264e+00  1.0006301179731976e+00  1.0006301179731449e+00  1.0010195541653886e+00  1.0010195541654721e+00  1.0010195541652740e+00  1.0010195541654869e+00  1.0010195541652211e+00  1.0010195541652243e+00  1.0010195541653555e+00  1.0010195541651774e+00  1.0010195541653155e+00  1.0010195541652585e+00  1.0010195541652374e+00  1.0010195541653735e+00  1.0010195541652323e+00  1.0010195541653129e+00  1.0010195541652447e+00  1.0010195541652183e+00  1.0010195541652163e+00  1.0010195541652365e+00  1.0010195541651767e+00  1.0010195541651403e+00  1.0010195541652454e+00  1.0010195541651035e+00  1.0010195541652906e+00  1.0010195541653228e+00  1.0010195541652929e+00  1.0010195541653324e+00  1.0010195541651801e+00  1.0010195541652138e+00  1.0010195541651790e+00  1.0010195541653937e+00  1.0010195541653886e+00  1.0012327003364183e+00  1.0012327003390318e+00  1.0012327003395207e+00  1.0012327003390775e+00  1.0012327003362482e+00  1.0012327003360701e+00  1.0012327003362027e+00  1.0012327003362458e+00  1.0012327003362613e+00  1.0012327003363490e+00  1.0012327003361539e+00  1.0012327003362682e+00  1.0012327003360169e+00  1.0012327003362367e+00  1.0012327003362662e+00  1.0012327003359891e+00  1.0012327003363282e+00  1.0012327003362094e+00  1.0012327003363228e+00  1.0012327003361161e+00  1.0012327003360681e+00  1.0012327003360695e+00  1.0012327003361585e+00  1.0012327003363835e+00  1.0012327003363071e+00  1.0012327003361721e+00  1.0012327003362071e+00  1.0012327003360955e+00  1.0012327003362131e+00  1.0012327003361055e+00  1.0012327003364183e+00  1.0012327003390555e+00  1.0012327003391130e+00  1.0012327003387738e+00  1.0012327003361376e+00  1.0012327003361896e+00  1.0012327003362445e+00  1.0012327003364343e+00  1.0012327003362984e+00  1.0012327003363140e+00  1.0012327003363017e+00  1.0012327003362704e+00  1.0012327003363042e+00  1.0012327003364316e+00  1.0012327003364514e+00  1.0012327003363295e+00  1.0012327003363244e+00  1.0012327003362158e+00  1.0012327003363777e+00  1.0012327003362895e+00  1.0012327003363499e+00  1.0012327003363211e+00  1.0012327003363912e+00  1.0012327003363544e+00  1.0012327003363148e+00  1.0012327003363557e+00  1.0012327003364407e+00  1.0012327003364450e+00  1.0012327003363537e+00  1.0012327003362984e+00  1.0012327003365287e+00  1.0012327003390555e+00  1.0010195541655111e+00  1.0010195541654658e+00  1.0010195541656284e+00  1.0010195541654721e+00  1.0010195541656497e+00  1.0010195541653069e+00  1.0010195541652820e+00  1.0010195541654356e+00  1.0010195541652507e+00  1.0010195541654878e+00  1.0010195541653739e+00  1.0010195541654332e+00  1.0010195541653959e+00  1.0010195541652542e+00  1.0010195541654294e+00  1.0010195541653988e+00  1.0010195541653821e+00  1.0010195541652924e+00  1.0010195541653553e+00  1.0010195541652116e+00  1.0010195541654696e+00  1.0010195541654907e+00  1.0010195541653999e+00  1.0010195541652702e+00  1.0010195541653915e+00  1.0010195541653795e+00  1.0010195541654370e+00  1.0010195541653037e+00  1.0010195541653868e+00  1.0010195541655142e+00  1.0010195541655111e+00  1.0006301179727799e+00  1.0006301179728039e+00  1.0006301179730674e+00  1.0006301179730106e+00  1.0006301179730521e+00  1.0006301179731434e+00  1.0006301179729569e+00  1.0006301179730610e+00  1.0006301179729082e+00  1.0006301179728860e+00  1.0006301179729080e+00  1.0006301179729504e+00  1.0006301179730239e+00  1.0006301179728145e+00  1.0006301179730326e+00  1.0006301179730059e+00  1.0006301179729986e+00  1.0006301179729968e+00  1.0006301179729977e+00  1.0006301179728549e+00  1.0006301179728687e+00  1.0006301179730994e+00  1.0006301179730852e+00  1.0006301179729629e+00  1.0006301179729995e+00  1.0006301179729724e+00  1.0006301179729646e+00  1.0006301179730153e+00  1.0006301179728765e+00  1.0006301179729624e+00  1.0006301179727799e+00  1.0001317305297022e+00  1.0001317305297950e+00  1.0001317305297066e+00  1.0001317305296924e+00  1.0001317305296564e+00  1.0001317305297528e+00  1.0001317305298991e+00  1.0001317305296833e+00  1.0001317305297310e+00  1.0001317305296400e+00  1.0001317305296786e+00  1.0001317305296507e+00  1.0001317305296955e+00  1.0001317305297610e+00  1.0001317305298125e+00  1.0001317305296553e+00  1.0001317305296518e+00  1.0001317305298267e+00  1.0001317305297144e+00  1.0001317305296751e+00  1.0001317305296056e+00  1.0001317305297746e+00  1.0001317305297224e+00  1.0001317305295794e+0