<?xml version="1.0"?>
<VTKFile type="UnstructuredGrid"  version="0.1"  >
<UnstructuredGrid>
<Piece  NumberOfPoints="961" NumberOfCells="1800">
<Points>
<DataArray  type="Float64"  NumberOfComponents="3"  format="ascii">0 0 0  0.03333333333333333 0 0  0.06666666666666667 0 0  0.1 0 0  0.1333333333333333 0 0  0.1666666666666667 0 0  0.2 0 0  0.2333333333333333 0 0  0.2666666666666667 0 0  0.3 0 0  0.3333333333333333 0 0  0.3666666666666666 0 0  0.4 0 0  0.4333333333333333 0 0  0.4666666666666667 0 0  0.5 0 0  0.5333333333333333 0 0  0.5666666666666667 0 0  0.6 0 0  0.6333333333333333 0 0  0.6666666666666666 0 0  0.7 0 0  0.7333333333333333 0 0  0.7666666666666667 0 0  0.8 0 0  0.8333333333333334 0 0  0.8666666666666667 0 0  0.9 0 0  0.9333333333333333 0 0  0.9666666666666667 0 0  1 0 0  0 0.03333333333333333 0  0.03333333333333333 0.03333333333333333 0  0.06666666666666667 0.03333333333333333 0  0.1 0.03333333333333333 0  0.1333333333333333 0.03333333333333333 0  0.1666666666666667 0.03333333333333333 0  0.2 0.03333333333333333 0  0.2333333333333333 0.03333333333333333 0  0.2666666666666667 0.03333333333333333 0  0.3 0.03333333333333333 0  0.3333333333333333 0.03333333333333333 0  0.3666666666666666 0.03333333333333333 0  0.4 0.03333333333333333 0  0.4333333333333333 0.03333333333333333 0  0.4666666666666667 0.03333333333333333 0  0.5 0.03333333333333333 0  0.5333333333333333 0.03333333333333333 0  0.5666666666666667 0.03333333333333333 0  0.6 0.03333333333333333 0  0.6333333333333333 0.03333333333333333 0  0.6666666666666666 0.03333333333333333 0  0.7 0.03333333333333333 0  0.7333333333333333 0.03333333333333333 0  0.7666666666666667 0.03333333333333333 0  0.8 0.03333333333333333 0  0.8333333333333334 0.03333333333333333 0  0.8666666666666667 0.03333333333333333 0  0.9 0.03333333333333333 0  0.9333333333333333 0.03333333333333333 0  0.9666666666666667 0.03333333333333333 0  1 0.03333333333333333 0  0 0.06666666666666667 0  0.03333333333333333 0.06666666666666667 0  0.06666666666666667 0.06666666666666667 0  0.1 0.06666666666666667 0  0.1333333333333333 0.06666666666666667 0  0.1666666666666667 0.06666666666666667 0  0.2 0.06666666666666667 0  0.2333333333333333 0.06666666666666667 0  0.2666666666666667 0.06666666666666667 0  0.3 0.06666666666666667 0  0.3333333333333333 0.06666666666666667 0  0.3666666666666666 0.06666666666666667 0  0.4 0.06666666666666667 0  0.4333333333333333 0.06666666666666667 0  0.4666666666666667 0.06666666666666667 0  0.5 0.06666666666666667 0  0.5333333333333333 0.06666666666666667 0  0.5666666666666667 0.06666666666666667 0  0.6 0.06666666666666667 0  0.6333333333333333 0.06666666666666667 0  0.6666666666666666 0.06666666666666667 0  0.7 0.06666666666666667 0  0.7333333333333333 0.06666666666666667 0  0.7666666666666667 0.06666666666666667 0  0.8 0.06666666666666667 0  0.8333333333333334 0.06666666666666667 0  0.8666666666666667 0.06666666666666667 0  0.9 0.06666666666666667 0  0.9333333333333333 0.06666666666666667 0  0.9666666666666667 0.06666666666666667 0  1 0.06666666666666667 0  0 0.1 0  0.03333333333333333 0.1 0  0.06666666666666667 0.1 0  0.1 0.1 0  0.1333333333333333 0.1 0  0.1666666666666667 0.1 0  0.2 0.1 0  0.2333333333333333 0.1 0  0.2666666666666667 0.1 0  0.3 0.1 0  0.3333333333333333 0.1 0  0.3666666666666666 0.1 0  0.4 0.1 0  0.4333333333333333 0.1 0  0.4666666666666667 0.1 0  0.5 0.1 0  0.5333333333333333 0.1 0  0.5666666666666667 0.1 0  0.6 0.1 0  0.6333333333333333 0.1 0  0.6666666666666666 0.1 0  0.7 0.1 0  0.7333333333333333 0.1 0  0.7666666666666667 0.1 0  0.8 0.1 0  0.8333333333333334 0.1 0  0.8666666666666667 0.1 0  0.9 0.1 0  0.9333333333333333 0.1 0  0.9666666666666667 0.1 0  1 0.1 0  0 0.1333333333333333 0  0.03333333333333333 0.1333333333333333 0  0.06666666666666667 0.1333333333333333 0  0.1 0.1333333333333333 0  0.1333333333333333 0.1333333333333333 0  0.1666666666666667 0.1333333333333333 0  0.2 0.1333333333333333 0  0.2333333333333333 0.1333333333333333 0  0.2666666666666667 0.1333333333333333 0  0.3 0.1333333333333333 0  0.3333333333333333 0.1333333333333333 0  0.3666666666666666 0.1333333333333333 0  0.4 0.1333333333333333 0  0.4333333333333333 0.1333333333333333 0  0.4666666666666667 0.1333333333333333 0  0.5 0.1333333333333333 0  0.5333333333333333 0.1333333333333333 0  0.5666666666666667 0.1333333333333333 0  0.6 0.1333333333333333 0  0.6333333333333333 0.1333333333333333 0  0.6666666666666666 0.1333333333333333 0  0.7 0.1333333333333333 0  0.7333333333333333 0.1333333333333333 0  0.7666666666666667 0.1333333333333333 0  0.8 0.1333333333333333 0  0.8333333333333334 0.1333333333333333 0  0.8666666666666667 0.1333333333333333 0  0.9 0.1333333333333333 0  0.9333333333333333 0.1333333333333333 0  0.9666666666666667 0.1333333333333333 0  1 0.1333333333333333 0  0 0.1666666666666667 0  0.03333333333333333 0.1666666666666667 0  0.06666666666666667 0.1666666666666667 0  0.1 0.1666666666666667 0  0.1333333333333333 0.1666666666666667 0  0.1666666666666667 0.1666666666666667 0  0.2 0.1666666666666667 0  0.2333333333333333 0.1666666666666667 0  0.2666666666666667 0.1666666666666667 0  0.3 0.1666666666666667 0  0.3333333333333333 0.1666666666666667 0  0.3666666666666666 0.1666666666666667 0  0.4 0.1666666666666667 0  0.4333333333333333 0.1666666666666667 0  0.4666666666666667 0.1666666666666667 0  0.5 0.1666666666666667 0  0.5333333333333333 0.1666666666666667 0  0.5666666666666667 0.1666666666666667 0  0.6 0.1666666666666667 0  0.6333333333333333 0.1666666666666667 0  0.6666666666666666 0.1666666666666667 0  0.7 0.1666666666666667 0  0.7333333333333333 0.1666666666666667 0  0.7666666666666667 0.1666666666666667 0  0.8 0.1666666666666667 0  0.8333333333333334 0.1666666666666667 0  0.8666666666666667 0.1666666666666667 0  0.9 0.1666666666666667 0  0.9333333333333333 0.1666666666666667 0  0.9666666666666667 0.1666666666666667 0  1 0.1666666666666667 0  0 0.2 0  0.03333333333333333 0.2 0  0.06666666666666667 0.2 0  0.1 0.2 0  0.1333333333333333 0.2 0  0.1666666666666667 0.2 0  0.2 0.2 0  0.2333333333333333 0.2 0  0.2666666666666667 0.2 0  0.3 0.2 0  0.3333333333333333 0.2 0  0.3666666666666666 0.2 0  0.4 0.2 0  0.4333333333333333 0.2 0  0.4666666666666667 0.2 0  0.5 0.2 0  0.5333333333333333 0.2 0  0.5666666666666667 0.2 0  0.6 0.2 0  0.6333333333333333 0.2 0  0.6666666666666666 0.2 0  0.7 0.2 0  0.7333333333333333 0.2 0  0.7666666666666667 0.2 0  0.8 0.2 0  0.8333333333333334 0.2 0  0.8666666666666667 0.2 0  0.9 0.2 0  0.9333333333333333 0.2 0  0.9666666666666667 0.2 0  1 0.2 0  0 0.2333333333333333 0  0.03333333333333333 0.2333333333333333 0  0.06666666666666667 0.2333333333333333 0  0.1 0.2333333333333333 0  0.1333333333333333 0.2333333333333333 0  0.1666666666666667 0.2333333333333333 0  0.2 0.2333333333333333 0  0.2333333333333333 0.2333333333333333 0  0.2666666666666667 0.2333333333333333 0  0.3 0.2333333333333333 0  0.3333333333333333 0.2333333333333333 0  0.3666666666666666 0.2333333333333333 0  0.4 0.2333333333333333 0  0.4333333333333333 0.2333333333333333 0  0.4666666666666667 0.2333333333333333 0  0.5 0.2333333333333333 0  0.5333333333333333 0.2333333333333333 0  0.5666666666666667 0.2333333333333333 0  0.6 0.2333333333333333 0  0.6333333333333333 0.2333333333333333 0  0.6666666666666666 0.2333333333333333 0  0.7 0.2333333333333333 0  0.7333333333333333 0.2333333333333333 0  0.7666666666666667 0.2333333333333333 0  0.8 0.2333333333333333 0  0.8333333333333334 0.2333333333333333 0  0.8666666666666667 0.2333333333333333 0  0.9 0.2333333333333333 0  0.9333333333333333 0.2333333333333333 0  0.9666666666666667 0.2333333333333333 0  1 0.2333333333333333 0  0 0.2666666666666667 0  0.03333333333333333 0.2666666666666667 0  0.06666666666666667 0.2666666666666667 0  0.1 0.2666666666666667 0  0.1333333333333333 0.2666666666666667 0  0.1666666666666667 0.2666666666666667 0  0.2 0.2666666666666667 0  0.2333333333333333 0.2666666666666667 0  0.2666666666666667 0.2666666666666667 0  0.3 0.2666666666666667 0  0.3333333333333333 0.2666666666666667 0  0.3666666666666666 0.2666666666666667 0  0.4 0.2666666666666667 0  0.4333333333333333 0.2666666666666667 0  0.4666666666666667 0.2666666666666667 0  0.5 0.2666666666666667 0  0.5333333333333333 0.2666666666666667 0  0.5666666666666667 0.2666666666666667 0  0.6 0.2666666666666667 0  0.6333333333333333 0.2666666666666667 0  0.6666666666666666 0.2666666666666667 0  0.7 0.2666666666666667 0  0.7333333333333333 0.2666666666666667 0  0.7666666666666667 0.2666666666666667 0  0.8 0.2666666666666667 0  0.8333333333333334 0.2666666666666667 0  0.8666666666666667 0.2666666666666667 0  0.9 0.2666666666666667 0  0.9333333333333333 0.2666666666666667 0  0.9666666666666667 0.2666666666666667 0  1 0.2666666666666667 0  0 0.3 0  0.03333333333333333 0.3 0  0.06666666666666667 0.3 0  0.1 0.3 0  0.1333333333333333 0.3 0  0.1666666666666667 0.3 0  0.2 0.3 0  0.2333333333333333 0.3 0  0.2666666666666667 0.3 0  0.3 0.3 0  0.3333333333333333 0.3 0  0.3666666666666666 0.3 0  0.4 0.3 0  0.4333333333333333 0.3 0  0.4666666666666667 0.3 0  0.5 0.3 0  0.5333333333333333 0.3 0  0.5666666666666667 0.3 0  0.6 0.3 0  0.6333333333333333 0.3 0  0.6666666666666666 0.3 0  0.7 0.3 0  0.7333333333333333 0.3 0  0.7666666666666667 0.3 0  0.8 0.3 0  0.8333333333333334 0.3 0  0.8666666666666667 0.3 0  0.9 0.3 0  0.9333333333333333 0.3 0  0.9666666666666667 0.3 0  1 0.3 0  0 0.3333333333333333 0  0.03333333333333333 0.3333333333333333 0  0.06666666666666667 0.3333333333333333 0  0.1 0.3333333333333333 0  0.1333333333333333 0.3333333333333333 0  0.1666666666666667 0.3333333333333333 0  0.2 0.3333333333333333 0  0.2333333333333333 0.3333333333333333 0  0.2666666666666667 0.3333333333333333 0  0.3 0.3333333333333333 0  0.3333333333333333 0.3333333333333333 0  0.3666666666666666 0.3333333333333333 0  0.4 0.3333333333333333 0  0.4333333333333333 0.3333333333333333 0  0.4666666666666667 0.3333333333333333 0  0.5 0.3333333333333333 0  0.5333333333333333 0.33333333333333
[...]
<PointData  Vectors="u_f"> 
<DataArray  type="Float64"  Name="u_f"  NumberOfComponents="3" format="ascii">2.7087783507922679e-06 -4.4835540765090706e-10 0.0000000000000000e+00  2.7087783554011571e-06 -4.4834129518753901e-10 0.0000000000000000e+00  2.7087783527382481e-06 -4.4836772467547747e-10 0.0000000000000000e+00  2.7087783504225549e-06 -4.4836629466702208e-10 0.0000000000000000e+00  2.7087783529878857e-06 -4.4835442357480521e-10 0.0000000000000000e+00  2.7087783528001019e-06 -4.4834212275905727e-10 0.0000000000000000e+00  2.7087783588104850e-06 -4.4833965766278780e-10 0.0000000000000000e+00  2.7087783600775379e-06 -4.4836167694154924e-10 0.0000000000000000e+00  2.7087783436510618e-06 -4.4835923889612397e-10 0.0000000000000000e+00  2.7087783553646195e-06 -4.4832929035898417e-10 0.0000000000000000e+00  2.7087783635460633e-06 -4.4833721029322385e-10 0.0000000000000000e+00  2.7087783385027278e-06 -4.4840596237190680e-10 0.0000000000000000e+00  2.7087783200747061e-06 -4.4836676591549635e-10 0.0000000000000000e+00  2.7087783471437649e-06 -4.4836270183786289e-10 0.0000000000000000e+00  2.7087783568441760e-06 -4.4835563723071709e-10 0.0000000000000000e+00  2.7087783553346955e-06 -4.4836035372700783e-10 0.0000000000000000e+00  2.7087783520877810e-06 -4.4835206061038038e-10 0.0000000000000000e+00  2.7087783442589740e-06 -4.4834929578642033e-10 0.0000000000000000e+00  2.7087783447284335e-06 -4.4834792101806561e-10 0.0000000000000000e+00  2.7087783616614488e-06 -4.4835591446121259e-10 0.0000000000000000e+00  2.7087783507028754e-06 -4.4834198143330409e-10 0.0000000000000000e+00  2.7087783760471854e-06 -4.4836490363563478e-10 0.0000000000000000e+00  2.7087783717449627e-06 -4.4829014724532060e-10 0.0000000000000000e+00  2.7087783845269474e-06 -4.4834635716485202e-10 0.0000000000000000e+00  2.7087783481355931e-06 -4.4834649816534455e-10 0.0000000000000000e+00  2.7087783657105645e-06 -4.4833926507318114e-10 0.0000000000000000e+00  2.7087783543245443e-06 -4.4835216767534491e-10 0.0000000000000000e+00  2.7087783563496171e-06 -4.4834680689191317e-10 0.0000000000000000e+00  2.7087783639171857e-06 -4.4833932492114106e-10 0.0000000000000000e+00  2.7087783708337450e-06 -4.4835545703631602e-10 0.0000000000000000e+00  2.7087783507923221e-06 6.7287371464106248e-11 0.0000000000000000e+00  4.1705034805640865e-04 -1.7021108926615000e-09 0.0000000000000000e+00  4.1705034806771362e-04 -1.7021140238373741e-09 0.0000000000000000e+00  4.1705034805661475e-04 -1.7021206991617299e-09 0.0000000000000000e+00  4.1705034804577045e-04 -1.7021153627186369e-09 0.0000000000000000e+00  4.1705034807004943e-04 -1.7021285784925982e-09 0.0000000000000000e+00  4.1705034805221810e-04 -1.7021186585848211e-09 0.0000000000000000e+00  4.1705034806205170e-04 -1.7021112806974575e-09 0.0000000000000000e+00  4.1705034806696129e-04 -1.7021072390085989e-09 0.0000000000000000e+00  4.1705034805234831e-04 -1.7021185388889012e-09 0.0000000000000000e+00  4.1705034807050945e-04 -1.7021043635960173e-09 0.0000000000000000e+00  4.1705034806695869e-04 -1.7021022423544668e-09 0.0000000000000000e+00  4.1705034803132281e-04 -1.7021569352583185e-09 0.0000000000000000e+00  4.1705034803972169e-04 -1.7021243237580128e-09 0.0000000000000000e+00  4.1705034805609954e-04 -1.7020970134642294e-09 0.0000000000000000e+00  4.1705034807297385e-04 -1.7020973491332220e-09 0.0000000000000000e+00  4.1705034805358050e-04 -1.7021209339999205e-09 0.0000000000000000e+00  4.1705034805443583e-04 -1.7021068681030357e-09 0.0000000000000000e+00  4.1705034806871510e-04 -1.7021193009746083e-09 0.0000000000000000e+00  4.1705034806092717e-04 -1.7021258657103425e-09 0.0000000000000000e+00  4.1705034805488480e-04 -1.7021076941566710e-09 0.0000000000000000e+00  4.1705034806802999e-04 -1.7021127020865057e-09 0.0000000000000000e+00  4.1705034804918504e-04 -1.7021147990419275e-09 0.0000000000000000e+00  4.1705034811775953e-04 -1.7020659898864254e-09 0.0000000000000000e+00  4.1705034808234601e-04 -1.7021124718019642e-09 0.0000000000000000e+00  4.1705034805334697e-04 -1.7021224109001198e-09 0.0000000000000000e+00  4.1705034806300786e-04 -1.7021244086510429e-09 0.0000000000000000e+00  4.1705034805848652e-04 -1.7021267365415274e-09 0.0000000000000000e+00  4.1705034806117718e-04 -1.7021100149998414e-09 0.0000000000000000e+00  4.1705034806212944e-04 -1.7021239633692106e-09 0.0000000000000000e+00  4.1705034805968641e-04 -1.7021254113212120e-09 0.0000000000000000e+00  4.1705034805640886e-04 2.8182463646928466e-10 0.0000000000000000e+00  7.5928009630272337e-04 -2.7733038749592348e-09 0.0000000000000000e+00  7.5928009628626703e-04 -2.7733068506605174e-09 0.0000000000000000e+00  7.5928009628343010e-04 -2.7733169021904383e-09 0.0000000000000000e+00  7.5928009628400126e-04 -2.7733161182038474e-09 0.0000000000000000e+00  7.5928009627849026e-04 -2.7733140810963855e-09 0.0000000000000000e+00  7.5928009628114168e-04 -2.7733117975497698e-09 0.0000000000000000e+00  7.5928009628615676e-04 -2.7733233676132535e-09 0.0000000000000000e+00  7.5928009628108053e-04 -2.7733188423702260e-09 0.0000000000000000e+00  7.5928009628874074e-04 -2.7732995473662633e-09 0.0000000000000000e+00  7.5928009628612435e-04 -2.7733115997912935e-09 0.0000000000000000e+00  7.5928009629367245e-04 -2.7732937325731719e-09 0.0000000000000000e+00  7.5928009625888550e-04 -2.7733580144862977e-09 0.0000000000000000e+00  7.5928009625438444e-04 -2.7733164518128559e-09 0.0000000000000000e+00  7.5928009629375691e-04 -2.7733252487040227e-09 0.0000000000000000e+00  7.5928009627963496e-04 -2.7733183926431648e-09 0.0000000000000000e+00  7.5928009628968790e-04 -2.7733144985142219e-09 0.0000000000000000e+00  7.5928009628650262e-04 -2.7733253111540679e-09 0.0000000000000000e+00  7.5928009626914314e-04 -2.7733214021715552e-09 0.0000000000000000e+00  7.5928009627783866e-04 -2.7733282845785259e-09 0.0000000000000000e+00  7.5928009628654805e-04 -2.7733290438453073e-09 0.0000000000000000e+00  7.5928009627813855e-04 -2.7733142475214190e-09 0.0000000000000000e+00  7.5928009628446497e-04 -2.7733163049034615e-09 0.0000000000000000e+00  7.5928009632774286e-04 -2.7732615076993608e-09 0.0000000000000000e+00  7.5928009631242481e-04 -2.7733111104908531e-09 0.0000000000000000e+00  7.5928009628584169e-04 -2.7732976473019560e-09 0.0000000000000000e+00  7.5928009629303874e-04 -2.7733089286424012e-09 0.0000000000000000e+00  7.5928009628326097e-04 -2.7733015442498246e-09 0.0000000000000000e+00  7.5928009628048454e-04 -2.7733100227108134e-09 0.0000000000000000e+00  7.5928009629151424e-04 -2.7733197392222630e-09 0.0000000000000000e+00  7.5928009627448912e-04 -2.7733015802453367e-09 0.0000000000000000e+00  7.5928009630272381e-04 5.1012008313735238e-10 0.0000000000000000e+00  9.7022346439898247e-04 -3.2711640943726417e-09 0.0000000000000000e+00  9.7022346439403872e-04 -3.2711739664671030e-09 0.0000000000000000e+00  9.7022346439160989e-04 -3.2711494773757926e-09 0.0000000000000000e+00  9.7022346440316337e-04 -3.2711490664631693e-09 0.0000000000000000e+00  9.7022346438584020e-04 -3.2711652141366454e-09 0.0000000000000000e+00  9.7022346438992266e-04 -3.2711708181608345e-09 0.0000000000000000e+00  9.7022346439790325e-04 -3.2711832144947939e-09 0.0000000000000000e+00  9.7022346437577382e-04 -3.2711998387835450e-09 0.0000000000000000e+00  9.7022346438816820e-04 -3.2711616909132657e-09 0.0000000000000000e+00  9.7022346439257028e-04 -3.2711595131847820e-09 0.0000000000000000e+00  9.7022346439434339e-04 -3.2711952890375484e-09 0.0000000000000000e+00  9.7022346437542991e-04 -3.2711611110819439e-09 0.0000000000000000e+00  9.7022346441141458e-04 -3.2711685374331445e-09 0.0000000000000000e+00  9.7022346438767359e-04 -3.2711799235075195e-09 0.0000000000000000e+00  9.7022346438186877e-04 -3.2711796481201677e-09 0.0000000000000000e+00  9.7022346439516499e-04 -3.2711743522262360e-09 0.0000000000000000e+00  9.7022346439166953e-04 -3.2711687644650794e-09 0.0000000000000000e+00  9.7022346438568451e-04 -3.2711688581401471e-09 0.0000000000000000e+00  9.7022346439353696e-04 -3.2711412723505917e-09 0.0000000000000000e+00  9.7022346440165178e-04 -3.2711520994103266e-09 0.0000000000000000e+00  9.7022346438350375e-04 -3.2711687269516843e-09 0.0000000000000000e+00  9.7022346439997820e-04 -3.2711548140357261e-09 0.0000000000000000e+00  9.7022346441976467e-04 -3.2711762634578256e-09 0.0000000000000000e+00  9.7022346438714645e-04 -3.2711782393078648e-09 0.0000000000000000e+00  9.7022346439892869e-04 -3.2711831017377679e-09 0.0000000000000000e+00  9.7022346437701155e-04 -3.2711499158271512e-09 0.0000000000000000e+00  9.7022346440216070e-04 -3.2711794323639354e-09 0.0000000000000000e+00  9.7022346438353454e-04 -3.2711808038796836e-09 0.0000000000000000e+00  9.7022346438843340e-04 -3.2711761194757771e-09 0.0000000000000000e+00  9.7022346438535947e-04 -3.2711623934762735e-09 0.0000000000000000e+00  9.7022346439898269e-04 6.4941602061503202e-10 0.0000000000000000e+00  1.0134064605282407e-03 -2.9976411865988498e-09 0.0000000000000000e+00  1.0134064605286785e-03 -2.9976473291462580e-09 0.0000000000000000e+00  1.0134064605286054e-03 -2.9976407210424369e-09 0.0000000000000000e+00  1.0134064605374431e-03 -2.9976373085160990e-09 0.0000000000000000e+00  1.0134064605194968e-03 -2.9976320560986744e-09 0.0000000000000000e+00  1.0134064605293940e-03 -2.9976499187631470e-09 0.0000000000000000e+00  1.0134064605137735e-03 -2.9976365080496351e-09 0.0000000000000000e+00  1.0134064605280544e-03 -2.9976293307396734e-09 0.0000000000000000e+00  1.0134064605236233e-03 -2.9976447536239972e-09 0.0000000000000000e+00  1.0134064605242222e-03 -2.9976488470292995e-09 0.0000000000000000e+00  1.0134064605352693e-03 -2.9976212115832845e-09 0.0000000000000000e+00  1.0134064605281535e-03 -2.9976458135400411e-09 0.0000000000000000e+00  1.0134064605367343e-03 -2.9976129450838204e-09 0.0000000000000000e+00  1.0134064605366103e-03 -2.9976228720389117e-09 0.0000000000000000e+00  1.0134064605323962e-03 -2.9976173187553842e-09 0.0000000000000000e+00  1.0134064605319148e-03 -2.9976133217356551e-09 0.0000000000000000e+00  1.0134064605372434e-03 -2.9976292768548254e-09 0.0000000000000000e+00  1.0134064605209956e-03 -2.9976166412374466e-09 0.0000000000000000e+00  1.0134064605416097e-03 -2.9976308758361894e-09 0.0000000000000000e+00  1.0134064605288508e-03 -2.9976344548959810e-09 0.0000000000000000e+00  1.0134064605360703e-03 -2.9976212925731868e-09 0.0000000000000000e+00  1.0134064605343788e-03 -2.9976193148800040e-09 0.0000000000000000e+00  1.0134064605349085e-03 -2.9976262076953156e-09 0.0000000000000000e+00  1.0134064605257500e-03 -2.9976400919883364e-09 0.0000000000000000e+00  1.0134064605247721e-03 -2.9976275518891690e-09 0.0000000000000000e+00  1.0134064605326503e-03 -2.9976242719607568e-09 0.0000000000000000e+00  1.0134064605368722e-03 -2.9976262153931510e-09 0.0000000000000000e+00  1.0134064605222327e-03 -2.9976287580640859e-09 0.0000000000000000e+00  1.0134064605343486e-03 -2.9976311550182488e-09 0.0000000000000000e+00  1.0134064605277951e-03 -2.9976220787281821e-09 0.0000000000000000e+00  1.0134064605282411e-03 6.2380712908623268e-10 0.0000000000000000e+00  8.8136232242252001e-04 -2.0555045735165881e-09 0.0000000000000000e+00  8.8136232241501299e-04 -2.0554990285814173e-09 0.0000000000000000e+00  8.8136232242775887e-04 -2.0555173526823345e-09 0.0000000000000000e+00  8.8136232241498404e-04 -2.0555093603775998e-09 0.0000000000000000e+00  8.8136232242578768e-04 -2.0554894588709419e-09 0.0000000000000000e+00  8.8136232242823928e-04 -2.0554894931317305e-09 0.0000000000000000e+00  8.8136232242469654e-04 -2.0555061553675577e-09 0.0000000000000000e+00  8.8136232241207979e-04 -2.0554942464908951e-09 0.0000000000000000e+00  8.8136232241066209e-04 -2.0555030803533561e-09 0.0000000000000000e+00  8.8136232241910900e-04 -2.0555017849486004e-09 0.0000000000000000e+00  8.8136232242961438e-04 -2.0555045533504276e-09 0.0000000000000000e+00  8.8136232241504920e-04 -2.0555150675094155e-09 0.0000000000000000e+00  8.8136232241387339e-04 -2.0555132695769529e-09 0.0000000000000000e+00  8.8136232242017618e-04 -2.0555116897859674e-09 0.0000000000000000e+00  8.8136232243513459e-04 -2.0555233766180250e-09 0.0000000000000000e+00  8.8136232240336812e-04 -2.0555189743235239e-09 0.0000000000000000e+00  8.8136232242509846e-04 -2.0554947279850799e-09 0.0000000000000000e+00  8.8136232242214390e-04 -2.0555095565097728e-09 0.0000000000000000e+00  8.8136232241864279e-04 -2.0554914735354188e-09 0.0000000000000000e+00  8.8136232242744673e-04 -2.0555027275539692e-09 0.0000000000000000e+00  8.8136232242089934e-04 -2.0555235277558079e-09 0.0000000000000000e+00  8.8136232242998420e-04 -2.0555065685570056e-09 0.0000000000000000e+00  8.8136232241210614e-04 -2.0554980718814203e-09 0.0000000000000000e+00  8.8136232242451548e-04 -2.0554927939852446e-09 0.0000000000000000e+00  8.8136232242224126e-04 -2.0555205317799446e-09 0.0000000000000000e+00  8.8136232241612809e-04 -2.0555003742931538e-09 0.0000000000000000e+00  8.8136232242105232e-04 -2.0555007578838824e-09 0.0000000000000000e+00  8.8136232243256861e-04 -2.0554717665346306e-09 0.0000000000000000e+00  8.8136232243837462e-04 -2.0554881395053182e-09 0.0000000000000000e+00  8.8136232241601338e-04 -2.0554992209188827e-09 0.0000000000000000e+00  8.8136232242252044e-04 4.3159947933104198e-10 0.0000000000000000e+00  5.9692260803854427e-04 -7.9382281840565880e-10 0.0000000000000000e+00  5.9692260803787033e-04 -7.9382740290033504e-10 0.0000000000000000e+00  5.9692260805074208e-04 -7.9380822347232399e-10 0.0000000000000000e+00  5.9692260804826143e-04 -7.9383137351974123e-10 0.0000000000000000e+00  5.9692260802416905e-04 -7.9383830411949852e-10 0.0000000000000000e+00  5.9692260804693827e-04 -7.9381597025947673e-10 0.0000000000000000e+00  5.9692260803843379e-04 -7.9383729315518278e-10 0.0000000000000000e+00  5.9692260803992478e-04 -7.9381569920893361e-10 0.0000000000000000e+00  5.9692260803055998e-04 -7.9383090725859695e-10 0.0000000000000000e+00  5.9692260803980162e-04 -7.9382043066721433e-10 0.0000000000000000e+00  5.9692260803832656e-04 -7.9382490630799246e-10 0.0000000000000000e+00  5.9692260803639126e-04 -7.9382952918342561e-10 0.0000000000000000e+00  5.9692260804319679e-04 -7.9381111482267758e-10 0.0000000000000000e+00  5.9692260805477889e-04 -7.9379027363799676e-10 0.0000000000000000e+00  5.9692260804345321e-04 -7.9381649306176430e-10 0.0000000000000000e+00  5.9692260803955442e-04 -7.9381997427230983e-10 0.0000000000000000e+00  5.9692260802736896e-04 -7.9380595597190046e-10 0.0000000000000000e+00  5.9692260805051028e-04 -7.9382237225646482e-10 0.0000000000000000e+00  5.9692260804151921e-04 -7.9382158566778868e-10 0.0000000000000000e+00  5.9692260804571399e-04 -7.9381591924776451e-10 0.0000000000000000e+00  5.9692260804185835e-04 -7.9382736305590521e-10 0.0000000000000000e+00  5.9692260804267475e-04 -7.9382712366406552e-10 0.0000000000000000e+00  5.9692260802981915e-04 -7.9383087007046244e-10 0.0000000000000000e+00  5.9692260804778221e-04 -7.9381173986523001e-10 0.0000000000000000e+00  5.9692260804012232e-04 -7.9381572078455684e-10 0.0000000000000000e+00  5.9692260804517449e-04 -7.9381010093101598e-10 0.0000000000000000e+00  5.9692260803688186e-04 -7.9381098032739808e-10 0.0000000000000000e+00  5.9692260803977386e-04 -7.9383657010075395e-10 0.0000000000000000e+00  5.9692260804782037e-04 -7.9382141978485629e-10 0.0000000000000000e+00  5.9692260803721948e-04 -7.9381691600903179e-10 0.0000000000000000e+00  5.9692260803854437e-04 1.4905036486655813e-10 0.0000000000000000e+00  2.0926946000210470e-04 3.7558115389176982e-10 0.0000000000000000e+00  2.0926946002285568e-04 3.7559851429958598e-10 0.0000000000000000e+00  2.0926946000194557e-04 3.7559394339809447e-10 0.0000000000000000e+00  2.0926946003293993e-04 3.7559673890497601e-10 0.0000000000000000e+00  2.0926946000477141e-04 3.7558267167994361e-10 0.0000000000000000e+00  2.0926946000557887e-04 3.7559170399205973e-10 0.0000000000000000e+00  2.0926946001577980e-04 3.7558989033866560e-10 0.0000000000000000e+00  2.0926946000638814e-04 3.7558521904005292e-10 0.0000000000000000e+00  2.0926946001342068e-04 3.7557580508877208e-10 0.0000000000000000e+00  2.0926946000728280e-04 3.7557724622385227e-10 0.0000000000000000e+00  2.0926945999946424e-04 3.7558066551290122e-10 0.0000000000000000e+00  2.0926946000845168e-04 3.7559873177698926e-10 0.0000000000000000e+00  2.0926946002143381e-04 3.7559090111324595e-10 0.0000000000000000e+00  2.0926946001372938e-04 3.7557927923845096e-10 0.0000000000000000e+00  2.0926946002352138e-04 3.7557113934669553e-10 0.0000000000000000e+00  2.0926946000341724e-04 3.7557294038268688e-10 0.0000000000000000e+00  2.0926946000408711e-04 3.7558162168434966e-10 0.0000000000000000e+00  2.0926946002544126e-04 3.7559779209896636e-10 0.0000000000000000e+00  2.0926946001860680e-04 3.7558860027360561e-10 0.0000000000000000e+00  2.0926946001036033e-04 3.7558685919399440e-10 0.0000000000000000e+00  2.0926946002153409e-04 3.7559113843154898e-10 0.0000000000000000e+00  2.0926946000402390e-04 3.7558287579455511e-10 0.0000000000000000e+00  2.0926946001504720e-04 3.7558423492329348e-10 0.0000000000000000e+00  2.0926946001236440e-04 3.7557420149954886e-10 0.0000000000000000e+00  2.0926946001962818e-04 3.7558556010295133e-10 0.0000000000000000e+00  2.0926946002029518e-04 3.7557555187335469e-10 0.0000000000000000e+00  2.0926946000416569e-04 3.7559377727121659e-10 0.0000000000000000e+00  2.0926946001201561e-04 3.7558931855754488e-10 0.0000000000000000e+00  2.0926946000687004e-04 3.7558462176662862e-10 0.0000000000000000e+00  2.0926946001156074e-04 3.7557277128780556e-10 0.0000000000000000e+00  2.0926946000210470e-04 -1.1158566380115101e-10 0.0000000000000000e+00  -2.1456838846863931e-04 1.1774171694589088e-09 0.0000000000000000e+00  -2.1456838844674092e-04 1.1774276289198971e-09 0.0000000000000000e+00  -2.1456838846134105e-04 1.1774350516932305e-09 0.0000000000000000e+00  -2.1456838845443539e-04 1.1774438483133469e-09 0.0000000000000000e+00  -2.1456838845023020e-04 1.1774182569136878e-09 0.0000000000000000e+00  -2.1456838847429234e-04 1.1774230553756627e-09 0.0000000000000000e+00  -2.1456838845715847e-04 1.1774201359444729e-09 0.0000000000000000e+00  -2.1456838846714593e-04 1.1774132025800001e-09 0.0000000000000000e+00  -2.1456838847945634e-04 1.1774182759414359e-09 0.0000000000000000e+00  -2.1456838845866920e-04 1.1774246863409908e-09 0.0000000000000000e+00  -2.1456838846079895e-04 1.1774218499054773e-09 0.0000000000000000e+00  -2.1456838845647998e-04 1.1774149790452597e-09 0.0000000000000000e+00  -2.1456838845630114e-04 1.1774234635235706e-09 0.0000000000000000e+00  -2.1456838845868617e-04 1.1774107693592745e-09 0.0000000000000000e+00  -2.1456838847014971e-04 1.1774271353910681e-09 0.0000000000000000e+00  -2.1456838844191302e-04 1.1774334217036844e-09 0.0000000000000000e+00  -2.1456838846872843e-04 1.1774126853071436e-09 0.0000000000000000e+00  -2.1456838847024734e-04 1.1774240116961890e-09 0.0000000000000000e+00  -2.1456838844531600e-04 1.1774244864141102e-09 0.0000000000000000e+00  -2.1456838846546400e-04 1.1774220980793546e-09 0.0000000000000000e+00  -2.1456838845888458e-04 1.1774203500201919e-09 0.0000000000000000e+00  -2.1456838846835774e-04 1.1774244140436152e-09 0.0000000000000000e+00  -2.1456838845289859e-04 1.1774222010243508e-09 0.0000000000000000e+00  -2.1456838847089889e-04 1.1774204787691998e-09 0.0000000000000000e+00  -2.1456838845830247e-04 1.1774228588640190e-09 0.0000000000000000e+00  -2.1456838845649841e-04 1.1774189177891220e-09 0.0000000000000000e+00  -2.1456838846320908e-04 1.1774127667849368e-09 0.0000000000000000e+00  -2.1456838847217543e-04 1.1774294479943020e-09 0.0000000000000000e+00  -2.1456838845872449e-04 1.1774321850626865e-09 0.0000000000000000e+00  -2.1456838845610636e-04 1.1774205722274271e-09 0.0000000000000000e+00  -2.1456838846863947e-04 -2.6312286120336285e-10 0.0000000000000000e+00  -6.0130547853558388e-04 1.5687572481283205e-09 0.0000000000000000e+00  -6.0130547851912732e-04 1.5687468619051889e-09 0.0