<?xml version="1.0"?>
<VTKFile type="UnstructuredGrid"  version="0.1"  >
<UnstructuredGrid>
<Piece  NumberOfPoints="961" NumberOfCells="1800">
<Points>
<DataArray  type="Float64"  NumberOfComponents="3"  format="ascii">0 0 0  0.03333333333333333 0 0  0.06666666666666667 0 0  0.1 0 0  0.1333333333333333 0 0  0.1666666666666667 0 0  0.2 0 0  0.2333333333333333 0 0  0.2666666666666667 0 0  0.3 0 0  0.3333333333333333 0 0  0.3666666666666666 0 0  0.4 0 0  0.4333333333333333 0 0  0.4666666666666667 0 0  0.5 0 0  0.5333333333333333 0 0  0.5666666666666667 0 0  0.6 0 0  0.6333333333333333 0 0  0.6666666666666666 0 0  0.7 0 0  0.7333333333333333 0 0  0.7666666666666667 0 0  0.8 0 0  0.8333333333333334 0 0  0.8666666666666667 0 0  0.9 0 0  0.9333333333333333 0 0  0.9666666666666667 0 0  1 0 0  0 0.03333333333333333 0  0.03333333333333333 0.03333333333333333 0  0.06666666666666667 0.03333333333333333 0  0.1 0.03333333333333333 0  0.1333333333333333 0.03333333333333333 0  0.1666666666666667 0.03333333333333333 0  0.2 0.03333333333333333 0  0.2333333333333333 0.03333333333333333 0  0.2666666666666667 0.03333333333333333 0  0.3 0.03333333333333333 0  0.3333333333333333 0.03333333333333333 0  0.3666666666666666 0.03333333333333333 0  0.4 0.03333333333333333 0  0.4333333333333333 0.03333333333333333 0  0.4666666666666667 0.03333333333333333 0  0.5 0.03333333333333333 0  0.5333333333333333 0.03333333333333333 0  0.5666666666666667 0.03333333333333333 0  0.6 0.03333333333333333 0  0.6333333333333333 0.03333333333333333 0  0.6666666666666666 0.03333333333333333 0  0.7 0.03333333333333333 0  0.7333333333333333 0.03333333333333333 0  0.7666666666666667 0.03333333333333333 0  0.8 0.03333333333333333 0  0.8333333333333334 0.03333333333333333 0  0.8666666666666667 0.03333333333333333 0  0.9 0.03333333333333333 0  0.9333333333333333 0.03333333333333333 0  0.9666666666666667 0.03333333333333333 0  1 0.03333333333333333 0  0 0.06666666666666667 0  0.03333333333333333 0.06666666666666667 0  0.06666666666666667 0.06666666666666667 0  0.1 0.06666666666666667 0  0.1333333333333333 0.06666666666666667 0  0.1666666666666667 0.06666666666666667 0  0.2 0.06666666666666667 0  0.2333333333333333 0.06666666666666667 0  0.2666666666666667 0.06666666666666667 0  0.3 0.06666666666666667 0  0.3333333333333333 0.06666666666666667 0  0.3666666666666666 0.06666666666666667 0  0.4 0.06666666666666667 0  0.4333333333333333 0.06666666666666667 0  0.4666666666666667 0.06666666666666667 0  0.5 0.06666666666666667 0  0.5333333333333333 0.06666666666666667 0  0.5666666666666667 0.06666666666666667 0  0.6 0.06666666666666667 0  0.6333333333333333 0.06666666666666667 0  0.6666666666666666 0.06666666666666667 0  0.7 0.06666666666666667 0  0.7333333333333333 0.06666666666666667 0  0.7666666666666667 0.06666666666666667 0  0.8 0.06666666666666667 0  0.8333333333333334 0.06666666666666667 0  0.8666666666666667 0.06666666666666667 0  0.9 0.06666666666666667 0  0.9333333333333333 0.06666666666666667 0  0.9666666666666667 0.06666666666666667 0  1 0.06666666666666667 0  0 0.1 0  0.03333333333333333 0.1 0  0.06666666666666667 0.1 0  0.1 0.1 0  0.1333333333333333 0.1 0  0.1666666666666667 0.1 0  0.2 0.1 0  0.2333333333333333 0.1 0  0.2666666666666667 0.1 0  0.3 0.1 0  0.3333333333333333 0.1 0  0.3666666666666666 0.1 0  0.4 0.1 0  0.4333333333333333 0.1 0  0.4666666666666667 0.1 0  0.5 0.1 0  0.5333333333333333 0.1 0  0.5666666666666667 0.1 0  0.6 0.1 0  0.6333333333333333 0.1 0  0.6666666666666666 0.1 0  0.7 0.1 0  0.7333333333333333 0.1 0  0.7666666666666667 0.1 0  0.8 0.1 0  0.8333333333333334 0.1 0  0.8666666666666667 0.1 0  0.9 0.1 0  0.9333333333333333 0.1 0  0.9666666666666667 0.1 0  1 0.1 0  0 0.1333333333333333 0  0.03333333333333333 0.1333333333333333 0  0.06666666666666667 0.1333333333333333 0  0.1 0.1333333333333333 0  0.1333333333333333 0.1333333333333333 0  0.1666666666666667 0.1333333333333333 0  0.2 0.1333333333333333 0  0.2333333333333333 0.1333333333333333 0  0.2666666666666667 0.1333333333333333 0  0.3 0.1333333333333333 0  0.3333333333333333 0.1333333333333333 0  0.3666666666666666 0.1333333333333333 0  0.4 0.1333333333333333 0  0.4333333333333333 0.1333333333333333 0  0.4666666666666667 0.1333333333333333 0  0.5 0.1333333333333333 0  0.5333333333333333 0.1333333333333333 0  0.5666666666666667 0.1333333333333333 0  0.6 0.1333333333333333 0  0.6333333333333333 0.1333333333333333 0  0.6666666666666666 0.1333333333333333 0  0.7 0.1333333333333333 0  0.7333333333333333 0.1333333333333333 0  0.7666666666666667 0.1333333333333333 0  0.8 0.1333333333333333 0  0.8333333333333334 0.1333333333333333 0  0.8666666666666667 0.1333333333333333 0  0.9 0.1333333333333333 0  0.9333333333333333 0.1333333333333333 0  0.9666666666666667 0.1333333333333333 0  1 0.1333333333333333 0  0 0.1666666666666667 0  0.03333333333333333 0.1666666666666667 0  0.06666666666666667 0.1666666666666667 0  0.1 0.1666666666666667 0  0.1333333333333333 0.1666666666666667 0  0.1666666666666667 0.1666666666666667 0  0.2 0.1666666666666667 0  0.2333333333333333 0.1666666666666667 0  0.2666666666666667 0.1666666666666667 0  0.3 0.1666666666666667 0  0.3333333333333333 0.1666666666666667 0  0.3666666666666666 0.1666666666666667 0  0.4 0.1666666666666667 0  0.4333333333333333 0.1666666666666667 0  0.4666666666666667 0.1666666666666667 0  0.5 0.1666666666666667 0  0.5333333333333333 0.1666666666666667 0  0.5666666666666667 0.1666666666666667 0  0.6 0.1666666666666667 0  0.6333333333333333 0.1666666666666667 0  0.6666666666666666 0.1666666666666667 0  0.7 0.1666666666666667 0  0.7333333333333333 0.1666666666666667 0  0.7666666666666667 0.1666666666666667 0  0.8 0.1666666666666667 0  0.8333333333333334 0.1666666666666667 0  0.8666666666666667 0.1666666666666667 0  0.9 0.1666666666666667 0  0.9333333333333333 0.1666666666666667 0  0.9666666666666667 0.1666666666666667 0  1 0.1666666666666667 0  0 0.2 0  0.03333333333333333 0.2 0  0.06666666666666667 0.2 0  0.1 0.2 0  0.1333333333333333 0.2 0  0.1666666666666667 0.2 0  0.2 0.2 0  0.2333333333333333 0.2 0  0.2666666666666667 0.2 0  0.3 0.2 0  0.3333333333333333 0.2 0  0.3666666666666666 0.2 0  0.4 0.2 0  0.4333333333333333 0.2 0  0.4666666666666667 0.2 0  0.5 0.2 0  0.5333333333333333 0.2 0  0.5666666666666667 0.2 0  0.6 0.2 0  0.6333333333333333 0.2 0  0.6666666666666666 0.2 0  0.7 0.2 0  0.7333333333333333 0.2 0  0.7666666666666667 0.2 0  0.8 0.2 0  0.8333333333333334 0.2 0  0.8666666666666667 0.2 0  0.9 0.2 0  0.9333333333333333 0.2 0  0.9666666666666667 0.2 0  1 0.2 0  0 0.2333333333333333 0  0.03333333333333333 0.2333333333333333 0  0.06666666666666667 0.2333333333333333 0  0.1 0.2333333333333333 0  0.1333333333333333 0.2333333333333333 0  0.1666666666666667 0.2333333333333333 0  0.2 0.2333333333333333 0  0.2333333333333333 0.2333333333333333 0  0.2666666666666667 0.2333333333333333 0  0.3 0.2333333333333333 0  0.3333333333333333 0.2333333333333333 0  0.3666666666666666 0.2333333333333333 0  0.4 0.2333333333333333 0  0.4333333333333333 0.2333333333333333 0  0.4666666666666667 0.2333333333333333 0  0.5 0.2333333333333333 0  0.5333333333333333 0.2333333333333333 0  0.5666666666666667 0.2333333333333333 0  0.6 0.2333333333333333 0  0.6333333333333333 0.2333333333333333 0  0.6666666666666666 0.2333333333333333 0  0.7 0.2333333333333333 0  0.7333333333333333 0.2333333333333333 0  0.7666666666666667 0.2333333333333333 0  0.8 0.2333333333333333 0  0.8333333333333334 0.2333333333333333 0  0.8666666666666667 0.2333333333333333 0  0.9 0.2333333333333333 0  0.9333333333333333 0.2333333333333333 0  0.9666666666666667 0.2333333333333333 0  1 0.2333333333333333 0  0 0.2666666666666667 0  0.03333333333333333 0.2666666666666667 0  0.06666666666666667 0.2666666666666667 0  0.1 0.2666666666666667 0  0.1333333333333333 0.2666666666666667 0  0.1666666666666667 0.2666666666666667 0  0.2 0.2666666666666667 0  0.2333333333333333 0.2666666666666667 0  0.2666666666666667 0.2666666666666667 0  0.3 0.2666666666666667 0  0.3333333333333333 0.2666666666666667 0  0.3666666666666666 0.2666666666666667 0  0.4 0.2666666666666667 0  0.4333333333333333 0.2666666666666667 0  0.4666666666666667 0.2666666666666667 0  0.5 0.2666666666666667 0  0.5333333333333333 0.2666666666666667 0  0.5666666666666667 0.2666666666666667 0  0.6 0.2666666666666667 0  0.6333333333333333 0.2666666666666667 0  0.6666666666666666 0.2666666666666667 0  0.7 0.2666666666666667 0  0.7333333333333333 0.2666666666666667 0  0.7666666666666667 0.2666666666666667 0  0.8 0.2666666666666667 0  0.8333333333333334 0.2666666666666667 0  0.8666666666666667 0.2666666666666667 0  0.9 0.2666666666666667 0  0.9333333333333333 0.2666666666666667 0  0.9666666666666667 0.2666666666666667 0  1 0.2666666666666667 0  0 0.3 0  0.03333333333333333 0.3 0  0.06666666666666667 0.3 0  0.1 0.3 0  0.1333333333333333 0.3 0  0.1666666666666667 0.3 0  0.2 0.3 0  0.2333333333333333 0.3 0  0.2666666666666667 0.3 0  0.3 0.3 0  0.3333333333333333 0.3 0  0.3666666666666666 0.3 0  0.4 0.3 0  0.4333333333333333 0.3 0  0.4666666666666667 0.3 0  0.5 0.3 0  0.5333333333333333 0.3 0  0.5666666666666667 0.3 0  0.6 0.3 0  0.6333333333333333 0.3 0  0.6666666666666666 0.3 0  0.7 0.3 0  0.7333333333333333 0.3 0  0.7666666666666667 0.3 0  0.8 0.3 0  0.8333333333333334 0.3 0  0.8666666666666667 0.3 0  0.9 0.3 0  0.9333333333333333 0.3 0  0.9666666666666667 0.3 0  1 0.3 0  0 0.3333333333333333 0  0.03333333333333333 0.3333333333333333 0  0.06666666666666667 0.3333333333333333 0  0.1 0.3333333333333333 0  0.1333333333333333 0.3333333333333333 0  0.1666666666666667 0.3333333333333333 0  0.2 0.3333333333333333 0  0.2333333333333333 0.3333333333333333 0  0.2666666666666667 0.3333333333333333 0  0.3 0.3333333333333333 0  0.3333333333333333 0.3333333333333333 0  0.3666666666666666 0.3333333333333333 0  0.4 0.3333333333333333 0  0.4333333333333333 0.3333333333333333 0  0.4666666666666667 0.3333333333333333 0  0.5 0.3333333333333333 0  0.5333333333333333 0.33333333333333
[...]
<PointData  Vectors="u_f"> 
<DataArray  type="Float64"  Name="u_f"  NumberOfComponents="3" format="ascii">2.7090779492191727e-06 7.5957923268256747e-10 0.0000000000000000e+00  2.7090779622243404e-06 7.5956641025715435e-10 0.0000000000000000e+00  2.7090779563977837e-06 7.5956882645590584e-10 0.0000000000000000e+00  2.7090779469774221e-06 7.5955455260904442e-10 0.0000000000000000e+00  2.7090779403093619e-06 7.5957257503070710e-10 0.0000000000000000e+00  2.7090779243880156e-06 7.5957213804302148e-10 0.0000000000000000e+00  2.7090779559559171e-06 7.5959640622813920e-10 0.0000000000000000e+00  2.7090779610216349e-06 7.5956993207107124e-10 0.0000000000000000e+00  2.7090779590977724e-06 7.5955849991810390e-10 0.0000000000000000e+00  2.7090779515379559e-06 7.5957971564042520e-10 0.0000000000000000e+00  2.7090779479933737e-06 7.5957928889845011e-10 0.0000000000000000e+00  2.7090779246780939e-06 7.5945950439929022e-10 0.0000000000000000e+00  2.7090778841236201e-06 7.5954495790770890e-10 0.0000000000000000e+00  2.7090779450524754e-06 7.5955806997773240e-10 0.0000000000000000e+00  2.7090779590397676e-06 7.5957595302520581e-10 0.0000000000000000e+00  2.7090779500735240e-06 7.5955360002901567e-10 0.0000000000000000e+00  2.7090779448475069e-06 7.5956671480954460e-10 0.0000000000000000e+00  2.7090779612879692e-06 7.5957819689002198e-10 0.0000000000000000e+00  2.7090779408999268e-06 7.5956984988854656e-10 0.0000000000000000e+00  2.7090779619030371e-06 7.5957221637662845e-10 0.0000000000000000e+00  2.7090779499554544e-06 7.5958061135405000e-10 0.0000000000000000e+00  2.7090779504938150e-06 7.5957651718980626e-10 0.0000000000000000e+00  2.7090779793883992e-06 7.5966193893110129e-10 0.0000000000000000e+00  2.7090780173697902e-06 7.5961088124871373e-10 0.0000000000000000e+00  2.7090779532841177e-06 7.5956512406811713e-10 0.0000000000000000e+00  2.7090779595305317e-06 7.5957161930649206e-10 0.0000000000000000e+00  2.7090779495450839e-06 7.5958011999362543e-10 0.0000000000000000e+00  2.7090779743005637e-06 7.5958158892493882e-10 0.0000000000000000e+00  2.7090779424844341e-06 7.5959441547032019e-10 0.0000000000000000e+00  2.7090779664434590e-06 7.5958176857723880e-10 0.0000000000000000e+00  2.7090779492192811e-06 -2.3297308967106562e-10 0.0000000000000000e+00  4.1705116366598407e-04 -2.8339350798770729e-10 0.0000000000000000e+00  4.1705116366393406e-04 -2.8337727097597215e-10 0.0000000000000000e+00  4.1705116367853642e-04 -2.8338396353914247e-10 0.0000000000000000e+00  4.1705116366426757e-04 -2.8340144770863662e-10 0.0000000000000000e+00  4.1705116365469742e-04 -2.8340940369259854e-10 0.0000000000000000e+00  4.1705116366843806e-04 -2.8339667765275856e-10 0.0000000000000000e+00  4.1705116365905581e-04 -2.8340495531950505e-10 0.0000000000000000e+00  4.1705116366198662e-04 -2.8339672958604262e-10 0.0000000000000000e+00  4.1705116367199196e-04 -2.8338541582795251e-10 0.0000000000000000e+00  4.1705116366884984e-04 -2.8340566525508759e-10 0.0000000000000000e+00  4.1705116366493825e-04 -2.8339692398349214e-10 0.0000000000000000e+00  4.1705116358277069e-04 -2.8347219645404043e-10 0.0000000000000000e+00  4.1705116362930009e-04 -2.8340539821609251e-10 0.0000000000000000e+00  4.1705116367446134e-04 -2.8338906232511923e-10 0.0000000000000000e+00  4.1705116364662228e-04 -2.8343055040545156e-10 0.0000000000000000e+00  4.1705116366819921e-04 -2.8340424408287990e-10 0.0000000000000000e+00  4.1705116367074123e-04 -2.8338544683613465e-10 0.0000000000000000e+00  4.1705116365391148e-04 -2.8338464365916527e-10 0.0000000000000000e+00  4.1705116366789325e-04 -2.8337283929959212e-10 0.0000000000000000e+00  4.1705116368465273e-04 -2.8338985054009863e-10 0.0000000000000000e+00  4.1705116366192894e-04 -2.8340702939826101e-10 0.0000000000000000e+00  4.1705116364692900e-04 -2.8341820383637195e-10 0.0000000000000000e+00  4.1705116373416727e-04 -2.8329590875866145e-10 0.0000000000000000e+00  4.1705116370305793e-04 -2.8338059101986474e-10 0.0000000000000000e+00  4.1705116367405596e-04 -2.8337527170716609e-10 0.0000000000000000e+00  4.1705116367419799e-04 -2.8339749687592009e-10 0.0000000000000000e+00  4.1705116366465452e-04 -2.8338918494838494e-10 0.0000000000000000e+00  4.1705116367703611e-04 -2.8339863236085533e-10 0.0000000000000000e+00  4.1705116366913618e-04 -2.8340403754236604e-10 0.0000000000000000e+00  4.1705116366375506e-04 -2.8340632412474781e-10 0.0000000000000000e+00  4.1705116366598429e-04 -1.1737445551375548e-09 0.0000000000000000e+00  7.5928125926120603e-04 -1.4959115107650994e-09 0.0000000000000000e+00  7.5928125927067274e-04 -1.4959123364934740e-09 0.0000000000000000e+00  7.5928125926736062e-04 -1.4959253132008563e-09 0.0000000000000000e+00  7.5928125925735592e-04 -1.4959110233078027e-09 0.0000000000000000e+00  7.5928125924983015e-04 -1.4959037671763431e-09 0.0000000000000000e+00  7.5928125924666894e-04 -1.4959130789551217e-09 0.0000000000000000e+00  7.5928125925394806e-04 -1.4958986329369553e-09 0.0000000000000000e+00  7.5928125925968165e-04 -1.4959013637169671e-09 0.0000000000000000e+00  7.5928125927035497e-04 -1.4958894561413472e-09 0.0000000000000000e+00  7.5928125926212294e-04 -1.4958991625697166e-09 0.0000000000000000e+00  7.5928125927399680e-04 -1.4958942377981885e-09 0.0000000000000000e+00  7.5928125918462667e-04 -1.4960247522125686e-09 0.0000000000000000e+00  7.5928125919964091e-04 -1.4959263930662201e-09 0.0000000000000000e+00  7.5928125925339327e-04 -1.4959196072616629e-09 0.0000000000000000e+00  7.5928125925786983e-04 -1.4959171709509611e-09 0.0000000000000000e+00  7.5928125924966947e-04 -1.4959007979802735e-09 0.0000000000000000e+00  7.5928125927167986e-04 -1.4959119867298531e-09 0.0000000000000000e+00  7.5928125925231655e-04 -1.4959019138411495e-09 0.0000000000000000e+00  7.5928125927643691e-04 -1.4959361249733405e-09 0.0000000000000000e+00  7.5928125924550386e-04 -1.4959300384791846e-09 0.0000000000000000e+00  7.5928125925684038e-04 -1.4959233203288430e-09 0.0000000000000000e+00  7.5928125925424285e-04 -1.4959244525611717e-09 0.0000000000000000e+00  7.5928125932550247e-04 -1.4958154688840541e-09 0.0000000000000000e+00  7.5928125931632178e-04 -1.4958795438229852e-09 0.0000000000000000e+00  7.5928125925314120e-04 -1.4959155685001502e-09 0.0000000000000000e+00  7.5928125926838670e-04 -1.4959040310711519e-09 0.0000000000000000e+00  7.5928125925179884e-04 -1.4959033962707799e-09 0.0000000000000000e+00  7.5928125925459934e-04 -1.4959205999571720e-09 0.0000000000000000e+00  7.5928125926741645e-04 -1.4959090212200710e-09 0.0000000000000000e+00  7.5928125925317144e-04 -1.4959165604367178e-09 0.0000000000000000e+00  7.5928125926120647e-04 -1.7895950167710863e-09 0.0000000000000000e+00  9.7022481097837408e-04 -2.2785410199246958e-09 0.0000000000000000e+00  9.7022481100587509e-04 -2.2785319802806625e-09 0.0000000000000000e+00  9.7022481098747531e-04 -2.2785177267083817e-09 0.0000000000000000e+00  9.7022481100418850e-04 -2.2785216751558535e-09 0.0000000000000000e+00  9.7022481098931065e-04 -2.2785333311965694e-09 0.0000000000000000e+00  9.7022481099343126e-04 -2.2785386251389372e-09 0.0000000000000000e+00  9.7022481100372338e-04 -2.2785394131370762e-09 0.0000000000000000e+00  9.7022481098470365e-04 -2.2785461800765155e-09 0.0000000000000000e+00  9.7022481100249823e-04 -2.2785419545069685e-09 0.0000000000000000e+00  9.7022481098512866e-04 -2.2785596519390300e-09 0.0000000000000000e+00  9.7022481099086626e-04 -2.2785377328405493e-09 0.0000000000000000e+00  9.7022481097058821e-04 -2.2785089730768815e-09 0.0000000000000000e+00  9.7022481101378781e-04 -2.2785555298023702e-09 0.0000000000000000e+00  9.7022481098409932e-04 -2.2785369164363134e-09 0.0000000000000000e+00  9.7022481099497712e-04 -2.2785493938685952e-09 0.0000000000000000e+00  9.7022481098404793e-04 -2.2785651826711523e-09 0.0000000000000000e+00  9.7022481099280156e-04 -2.2785378601258843e-09 0.0000000000000000e+00  9.7022481098774658e-04 -2.2785579284912566e-09 0.0000000000000000e+00  9.7022481097805424e-04 -2.2785382851331359e-09 0.0000000000000000e+00  9.7022481101272204e-04 -2.2785337876456840e-09 0.0000000000000000e+00  9.7022481098937873e-04 -2.2785332787211843e-09 0.0000000000000000e+00  9.7022481099184117e-04 -2.2785275729988314e-09 0.0000000000000000e+00  9.7022481102546922e-04 -2.2785559461360044e-09 0.0000000000000000e+00  9.7022481097472704e-04 -2.2785643038168713e-09 0.0000000000000000e+00  9.7022481097461667e-04 -2.2785385260428587e-09 0.0000000000000000e+00  9.7022481100285927e-04 -2.2785469195023972e-09 0.0000000000000000e+00  9.7022481098178108e-04 -2.2785435827617911e-09 0.0000000000000000e+00  9.7022481099847541e-04 -2.2785262363943931e-09 0.0000000000000000e+00  9.7022481099491879e-04 -2.2785464465734095e-09 0.0000000000000000e+00  9.7022481098555801e-04 -2.2785491152286369e-09 0.0000000000000000e+00  9.7022481097837473e-04 -2.0945808298755654e-09 0.0000000000000000e+00  1.0134078265985297e-03 -2.2789753891536493e-09 0.0000000000000000e+00  1.0134078265934608e-03 -2.2789406200910203e-09 0.0000000000000000e+00  1.0134078266245644e-03 -2.2789488466918445e-09 0.0000000000000000e+00  1.0134078266052218e-03 -2.2789879917028619e-09 0.0000000000000000e+00  1.0134078265961462e-03 -2.2789748544251379e-09 0.0000000000000000e+00  1.0134078266107447e-03 -2.2789465024299072e-09 0.0000000000000000e+00  1.0134078266051672e-03 -2.2789744879648036e-09 0.0000000000000000e+00  1.0134078266000471e-03 -2.2789845103296860e-09 0.0000000000000000e+00  1.0134078266009518e-03 -2.2789837527976281e-09 0.0000000000000000e+00  1.0134078265852246e-03 -2.2789674333865279e-09 0.0000000000000000e+00  1.0134078266012263e-03 -2.2789463946602112e-09 0.0000000000000000e+00  1.0134078266131183e-03 -2.2789554317021593e-09 0.0000000000000000e+00  1.0134078266202827e-03 -2.2789326343999189e-09 0.0000000000000000e+00  1.0134078266064942e-03 -2.2789637644463762e-09 0.0000000000000000e+00  1.0134078266055184e-03 -2.2789511999526599e-09 0.0000000000000000e+00  1.0134078266118601e-03 -2.2789478011956896e-09 0.0000000000000000e+00  1.0134078266061956e-03 -2.2789581560853783e-09 0.0000000000000000e+00  1.0134078265982009e-03 -2.2789649769096657e-09 0.0000000000000000e+00  1.0134078266109963e-03 -2.2789506105803589e-09 0.0000000000000000e+00  1.0134078266152253e-03 -2.2789691384028643e-09 0.0000000000000000e+00  1.0134078265964836e-03 -2.2789771404654185e-09 0.0000000000000000e+00  1.0134078266068724e-03 -2.2789636463767596e-09 0.0000000000000000e+00  1.0134078266036254e-03 -2.2789595099286311e-09 0.0000000000000000e+00  1.0134078266045474e-03 -2.2789387366150063e-09 0.0000000000000000e+00  1.0134078265913880e-03 -2.2789522567245174e-09 0.0000000000000000e+00  1.0134078266022858e-03 -2.2789636778186226e-09 0.0000000000000000e+00  1.0134078266074802e-03 -2.2789567912916836e-09 0.0000000000000000e+00  1.0134078266150180e-03 -2.2789396788951144e-09 0.0000000000000000e+00  1.0134078265962784e-03 -2.2789642509278910e-09 0.0000000000000000e+00  1.0134078265998277e-03 -2.2789407269933545e-09 0.0000000000000000e+00  1.0134078265985301e-03 -2.1361529088332852e-09 0.0000000000000000e+00  8.8136351742274823e-04 -1.5961404430152662e-09 0.0000000000000000e+00  8.8136351741411982e-04 -1.5961313784345829e-09 0.0000000000000000e+00  8.8136351741119898e-04 -1.5961167950480012e-09 0.0000000000000000e+00  8.8136351742052008e-04 -1.5961340649791461e-09 0.0000000000000000e+00  8.8136351741659820e-04 -1.5961140213335834e-09 0.0000000000000000e+00  8.8136351740291600e-04 -1.5961339155760867e-09 0.0000000000000000e+00  8.8136351743049301e-04 -1.5961426452467189e-09 0.0000000000000000e+00  8.8136351740736405e-04 -1.5961582908261690e-09 0.0000000000000000e+00  8.8136351740406374e-04 -1.5961726876215568e-09 0.0000000000000000e+00  8.8136351739737605e-04 -1.5961514124307463e-09 0.0000000000000000e+00  8.8136351740918280e-04 -1.5961279505125742e-09 0.0000000000000000e+00  8.8136351741489188e-04 -1.5961420598859660e-09 0.0000000000000000e+00  8.8136351742076999e-04 -1.5961234254863871e-09 0.0000000000000000e+00  8.8136351741360157e-04 -1.5961432557609623e-09 0.0000000000000000e+00  8.8136351741375130e-04 -1.5961322035124362e-09 0.0000000000000000e+00  8.8136351740982844e-04 -1.5961338664617283e-09 0.0000000000000000e+00  8.8136351742417493e-04 -1.5961364749437351e-09 0.0000000000000000e+00  8.8136351740634631e-04 -1.5961263216072302e-09 0.0000000000000000e+00  8.8136351742793657e-04 -1.5961031724813848e-09 0.0000000000000000e+00  8.8136351743192871e-04 -1.5961180964158689e-09 0.0000000000000000e+00  8.8136351742549267e-04 -1.5961263565185402e-09 0.0000000000000000e+00  8.8136351739758769e-04 -1.5961426547876981e-09 0.0000000000000000e+00  8.8136351739569868e-04 -1.5961307154449544e-09 0.0000000000000000e+00  8.8136351742141130e-04 -1.5961195011082036e-09 0.0000000000000000e+00  8.8136351743070681e-04 -1.5961367294059850e-09 0.0000000000000000e+00  8.8136351739658556e-04 -1.5961486027208163e-09 0.0000000000000000e+00  8.8136351741651884e-04 -1.5961405782152771e-09 0.0000000000000000e+00  8.8136351743227229e-04 -1.5961389402026349e-09 0.0000000000000000e+00  8.8136351740826079e-04 -1.5961426455719796e-09 0.0000000000000000e+00  8.8136351740999389e-04 -1.5961255928065299e-09 0.0000000000000000e+00  8.8136351742274866e-04 -1.9207221459811713e-09 0.0000000000000000e+00  5.9692340831531815e-04 -6.9715344581207025e-10 0.0000000000000000e+00  5.9692340828326567e-04 -6.9715077813262485e-10 0.0000000000000000e+00  5.9692340830277263e-04 -6.9714792592196970e-10 0.0000000000000000e+00  5.9692340830405145e-04 -6.9713928163225858e-10 0.0000000000000000e+00  5.9692340830894651e-04 -6.9715015650530926e-10 0.0000000000000000e+00  5.9692340828615908e-04 -6.9713075156324633e-10 0.0000000000000000e+00  5.9692340828504116e-04 -6.9715676276598665e-10 0.0000000000000000e+00  5.9692340829469164e-04 -6.9712966898737710e-10 0.0000000000000000e+00  5.9692340829994677e-04 -6.9714489031851706e-10 0.0000000000000000e+00  5.9692340829024348e-04 -6.9713872782178887e-10 0.0000000000000000e+00  5.9692340829843636e-04 -6.9714675704360754e-10 0.0000000000000000e+00  5.9692340829549774e-04 -6.9713585289709820e-10 0.0000000000000000e+00  5.9692340830907542e-04 -6.9713716570329876e-10 0.0000000000000000e+00  5.9692340829638332e-04 -6.9711774157085737e-10 0.0000000000000000e+00  5.9692340829265778e-04 -6.9712708213520366e-10 0.0000000000000000e+00  5.9692340831560796e-04 -6.9713341474325272e-10 0.0000000000000000e+00  5.9692340829726369e-04 -6.9713675050807680e-10 0.0000000000000000e+00  5.9692340829179389e-04 -6.9715161340197854e-10 0.0000000000000000e+00  5.9692340830125041e-04 -6.9717095204507862e-10 0.0000000000000000e+00  5.9692340830799101e-04 -6.9713670345370252e-10 0.0000000000000000e+00  5.9692340829700403e-04 -6.9714882098507319e-10 0.0000000000000000e+00  5.9692340830046989e-04 -6.9714197007417558e-10 0.0000000000000000e+00  5.9692340829644273e-04 -6.9712756482201085e-10 0.0000000000000000e+00  5.9692340829838931e-04 -6.9714998254507068e-10 0.0000000000000000e+00  5.9692340829396642e-04 -6.9714854120670258e-10 0.0000000000000000e+00  5.9692340829283538e-04 -6.9712736353987753e-10 0.0000000000000000e+00  5.9692340831449427e-04 -6.9711733949448171e-10 0.0000000000000000e+00  5.9692340830232225e-04 -6.9715148129194382e-10 0.0000000000000000e+00  5.9692340829578853e-04 -6.9714564633269194e-10 0.0000000000000000e+00  5.9692340828867508e-04 -6.9712798749822780e-10 0.0000000000000000e+00  5.9692340831531826e-04 -1.4056481739299540e-09 0.0000000000000000e+00  2.0926964899250689e-04 -1.0542177370051909e-10 0.0000000000000000e+00  2.0926964900229260e-04 -1.0545510276648018e-10 0.0000000000000000e+00  2.0926964898298361e-04 -1.0545761175938511e-10 0.0000000000000000e+00  2.0926964900104460e-04 -1.0545450106137950e-10 0.0000000000000000e+00  2.0926964898998604e-04 -1.0543954088743784e-10 0.0000000000000000e+00  2.0926964898869310e-04 -1.0542599014921536e-10 0.0000000000000000e+00  2.0926964899002011e-04 -1.0543720695252619e-10 0.0000000000000000e+00  2.0926964898677366e-04 -1.0546576184264096e-10 0.0000000000000000e+00  2.0926964898720154e-04 -1.0542859010668256e-10 0.0000000000000000e+00  2.0926964899197175e-04 -1.0544527180393875e-10 0.0000000000000000e+00  2.0926964897624096e-04 -1.0545156921607478e-10 0.0000000000000000e+00  2.0926964898848463e-04 -1.0547558058080289e-10 0.0000000000000000e+00  2.0926964897800455e-04 -1.0548497543657297e-10 0.0000000000000000e+00  2.0926964898074186e-04 -1.0546898677489796e-10 0.0000000000000000e+00  2.0926964898822107e-04 -1.0545816276448169e-10 0.0000000000000000e+00  2.0926964899156561e-04 -1.0547150391287171e-10 0.0000000000000000e+00  2.0926964898312607e-04 -1.0546718538654090e-10 0.0000000000000000e+00  2.0926964899002626e-04 -1.0547814515262169e-10 0.0000000000000000e+00  2.0926964899010167e-04 -1.0545848334951157e-10 0.0000000000000000e+00  2.0926964898366346e-04 -1.0544093003502387e-10 0.0000000000000000e+00  2.0926964899002607e-04 -1.0542973080934076e-10 0.0000000000000000e+00  2.0926964899998927e-04 -1.0546409562718975e-10 0.0000000000000000e+00  2.0926964898940279e-04 -1.0546108121988959e-10 0.0000000000000000e+00  2.0926964898262832e-04 -1.0548344835136555e-10 0.0000000000000000e+00  2.0926964897736194e-04 -1.0544973298417040e-10 0.0000000000000000e+00  2.0926964900426157e-04 -1.0546123210017442e-10 0.0000000000000000e+00  2.0926964896780836e-04 -1.0545510860761938e-10 0.0000000000000000e+00  2.0926964899872712e-04 -1.0543277354142268e-10 0.0000000000000000e+00  2.0926964900063789e-04 -1.0544872834888485e-10 0.0000000000000000e+00  2.0926964898074763e-04 -1.0544299870632150e-10 0.0000000000000000e+00  2.0926964899250692e-04 -5.6074541320722643e-10 0.0000000000000000e+00  -2.1456894046795421e-04 -6.7421273804765119e-11 0.0000000000000000e+00  -2.1456894047951940e-04 -6.7415326034277190e-11 0.0000000000000000e+00  -2.1456894046399568e-04 -6.7382906437755963e-11 0.0000000000000000e+00  -2.1456894045798031e-04 -6.7402068139061494e-11 0.0000000000000000e+00  -2.1456894046009136e-04 -6.7442115368916700e-11 0.0000000000000000e+00  -2.1456894046565386e-04 -6.7419425131640814e-11 0.0000000000000000e+00  -2.1456894046918787e-04 -6.7433308828350469e-11 0.0000000000000000e+00  -2.1456894048184973e-04 -6.7429251581190702e-11 0.0000000000000000e+00  -2.1456894046669643e-04 -6.7415339369963911e-11 0.0000000000000000e+00  -2.1456894045623079e-04 -6.7422344779671101e-11 0.0000000000000000e+00  -2.1456894048131148e-04 -6.7420004041390813e-11 0.0000000000000000e+00  -2.1456894046048081e-04 -6.7390345962013015e-11 0.0000000000000000e+00  -2.1456894045131437e-04 -6.7406586551615327e-11 0.0000000000000000e+00  -2.1456894047703696e-04 -6.7394236350458436e-11 0.0000000000000000e+00  -2.1456894047226007e-04 -6.7397358310614108e-11 0.0000000000000000e+00  -2.1456894045282217e-04 -6.7400847218995058e-11 0.0000000000000000e+00  -2.1456894045285150e-04 -6.7406886279305911e-11 0.0000000000000000e+00  -2.1456894046804176e-04 -6.7407553931003727e-11 0.0000000000000000e+00  -2.1456894046124577e-04 -6.7422752114427303e-11 0.0000000000000000e+00  -2.1456894047191443e-04 -6.7422951607627041e-11 0.0000000000000000e+00  -2.1456894046125244e-04 -6.7393311309164872e-11 0.0000000000000000e+00  -2.1456894045972436e-04 -6.7424333965396960e-11 0.0000000000000000e+00  -2.1456894048829504e-04 -6.7434764207136705e-11 0.0000000000000000e+00  -2.1456894046804453e-04 -6.7417236235874783e-11 0.0000000000000000e+00  -2.1456894047750175e-04 -6.7423712609131908e-11 0.0000000000000000e+00  -2.1456894046931321e-04 -6.7404156746126570e-11 0.0000000000000000e+00  -2.1456894045328257e-04 -6.7416610325960608e-11 0.0000000000000000e+00  -2.1456894047717709e-04 -6.7420203643010768e-11 0.0000000000000000e+00  -2.1456894045875828e-04 -6.7414752274487511e-11 0.0000000000000000e+00  -2.1456894044687982e-04 -6.7421809942739414e-11 0.0000000000000000e+00  -2.1456894046795438e-04 5.4882323398402194e-10 0.0000000000000000e+00  -6.0130673663492452e-04 -4.1471158375872702e-10 0.0000000000000000e+00  -6.0130673665