<?xml version="1.0"?>
<VTKFile type="UnstructuredGrid"  version="0.1"  >
<UnstructuredGrid>
<Piece  NumberOfPoints="961" NumberOfCells="1800">
<Points>
<DataArray  type="Float64"  NumberOfComponents="3"  format="ascii">0 0 0  0.03333333333333333 0 0  0.06666666666666667 0 0  0.1 0 0  0.1333333333333333 0 0  0.1666666666666667 0 0  0.2 0 0  0.2333333333333333 0 0  0.2666666666666667 0 0  0.3 0 0  0.3333333333333333 0 0  0.3666666666666666 0 0  0.4 0 0  0.4333333333333333 0 0  0.4666666666666667 0 0  0.5 0 0  0.5333333333333333 0 0  0.5666666666666667 0 0  0.6 0 0  0.6333333333333333 0 0  0.6666666666666666 0 0  0.7 0 0  0.7333333333333333 0 0  0.7666666666666667 0 0  0.8 0 0  0.8333333333333334 0 0  0.8666666666666667 0 0  0.9 0 0  0.9333333333333333 0 0  0.9666666666666667 0 0  1 0 0  0 0.03333333333333333 0  0.03333333333333333 0.03333333333333333 0  0.06666666666666667 0.03333333333333333 0  0.1 0.03333333333333333 0  0.1333333333333333 0.03333333333333333 0  0.1666666666666667 0.03333333333333333 0  0.2 0.03333333333333333 0  0.2333333333333333 0.03333333333333333 0  0.2666666666666667 0.03333333333333333 0  0.3 0.03333333333333333 0  0.3333333333333333 0.03333333333333333 0  0.3666666666666666 0.03333333333333333 0  0.4 0.03333333333333333 0  0.4333333333333333 0.03333333333333333 0  0.4666666666666667 0.03333333333333333 0  0.5 0.03333333333333333 0  0.5333333333333333 0.03333333333333333 0  0.5666666666666667 0.03333333333333333 0  0.6 0.03333333333333333 0  0.6333333333333333 0.03333333333333333 0  0.6666666666666666 0.03333333333333333 0  0.7 0.03333333333333333 0  0.7333333333333333 0.03333333333333333 0  0.7666666666666667 0.03333333333333333 0  0.8 0.03333333333333333 0  0.8333333333333334 0.03333333333333333 0  0.8666666666666667 0.03333333333333333 0  0.9 0.03333333333333333 0  0.9333333333333333 0.03333333333333333 0  0.9666666666666667 0.03333333333333333 0  1 0.03333333333333333 0  0 0.06666666666666667 0  0.03333333333333333 0.06666666666666667 0  0.06666666666666667 0.06666666666666667 0  0.1 0.06666666666666667 0  0.1333333333333333 0.06666666666666667 0  0.1666666666666667 0.06666666666666667 0  0.2 0.06666666666666667 0  0.2333333333333333 0.06666666666666667 0  0.2666666666666667 0.06666666666666667 0  0.3 0.06666666666666667 0  0.3333333333333333 0.06666666666666667 0  0.3666666666666666 0.06666666666666667 0  0.4 0.06666666666666667 0  0.4333333333333333 0.06666666666666667 0  0.4666666666666667 0.06666666666666667 0  0.5 0.06666666666666667 0  0.5333333333333333 0.06666666666666667 0  0.5666666666666667 0.06666666666666667 0  0.6 0.06666666666666667 0  0.6333333333333333 0.06666666666666667 0  0.6666666666666666 0.06666666666666667 0  0.7 0.06666666666666667 0  0.7333333333333333 0.06666666666666667 0  0.7666666666666667 0.06666666666666667 0  0.8 0.06666666666666667 0  0.8333333333333334 0.06666666666666667 0  0.8666666666666667 0.06666666666666667 0  0.9 0.06666666666666667 0  0.9333333333333333 0.06666666666666667 0  0.9666666666666667 0.06666666666666667 0  1 0.06666666666666667 0  0 0.1 0  0.03333333333333333 0.1 0  0.06666666666666667 0.1 0  0.1 0.1 0  0.1333333333333333 0.1 0  0.1666666666666667 0.1 0  0.2 0.1 0  0.2333333333333333 0.1 0  0.2666666666666667 0.1 0  0.3 0.1 0  0.3333333333333333 0.1 0  0.3666666666666666 0.1 0  0.4 0.1 0  0.4333333333333333 0.1 0  0.4666666666666667 0.1 0  0.5 0.1 0  0.5333333333333333 0.1 0  0.5666666666666667 0.1 0  0.6 0.1 0  0.6333333333333333 0.1 0  0.6666666666666666 0.1 0  0.7 0.1 0  0.7333333333333333 0.1 0  0.7666666666666667 0.1 0  0.8 0.1 0  0.8333333333333334 0.1 0  0.8666666666666667 0.1 0  0.9 0.1 0  0.9333333333333333 0.1 0  0.9666666666666667 0.1 0  1 0.1 0  0 0.1333333333333333 0  0.03333333333333333 0.1333333333333333 0  0.06666666666666667 0.1333333333333333 0  0.1 0.1333333333333333 0  0.1333333333333333 0.1333333333333333 0  0.1666666666666667 0.1333333333333333 0  0.2 0.1333333333333333 0  0.2333333333333333 0.1333333333333333 0  0.2666666666666667 0.1333333333333333 0  0.3 0.1333333333333333 0  0.3333333333333333 0.1333333333333333 0  0.3666666666666666 0.1333333333333333 0  0.4 0.1333333333333333 0  0.4333333333333333 0.1333333333333333 0  0.4666666666666667 0.1333333333333333 0  0.5 0.1333333333333333 0  0.5333333333333333 0.1333333333333333 0  0.5666666666666667 0.1333333333333333 0  0.6 0.1333333333333333 0  0.6333333333333333 0.1333333333333333 0  0.6666666666666666 0.1333333333333333 0  0.7 0.1333333333333333 0  0.7333333333333333 0.1333333333333333 0  0.7666666666666667 0.1333333333333333 0  0.8 0.1333333333333333 0  0.8333333333333334 0.1333333333333333 0  0.8666666666666667 0.1333333333333333 0  0.9 0.1333333333333333 0  0.9333333333333333 0.1333333333333333 0  0.9666666666666667 0.1333333333333333 0  1 0.1333333333333333 0  0 0.1666666666666667 0  0.03333333333333333 0.1666666666666667 0  0.06666666666666667 0.1666666666666667 0  0.1 0.1666666666666667 0  0.1333333333333333 0.1666666666666667 0  0.1666666666666667 0.1666666666666667 0  0.2 0.1666666666666667 0  0.2333333333333333 0.1666666666666667 0  0.2666666666666667 0.1666666666666667 0  0.3 0.1666666666666667 0  0.3333333333333333 0.1666666666666667 0  0.3666666666666666 0.1666666666666667 0  0.4 0.1666666666666667 0  0.4333333333333333 0.1666666666666667 0  0.4666666666666667 0.1666666666666667 0  0.5 0.1666666666666667 0  0.5333333333333333 0.1666666666666667 0  0.5666666666666667 0.1666666666666667 0  0.6 0.1666666666666667 0  0.6333333333333333 0.1666666666666667 0  0.6666666666666666 0.1666666666666667 0  0.7 0.1666666666666667 0  0.7333333333333333 0.1666666666666667 0  0.7666666666666667 0.1666666666666667 0  0.8 0.1666666666666667 0  0.8333333333333334 0.1666666666666667 0  0.8666666666666667 0.1666666666666667 0  0.9 0.1666666666666667 0  0.9333333333333333 0.1666666666666667 0  0.9666666666666667 0.1666666666666667 0  1 0.1666666666666667 0  0 0.2 0  0.03333333333333333 0.2 0  0.06666666666666667 0.2 0  0.1 0.2 0  0.1333333333333333 0.2 0  0.1666666666666667 0.2 0  0.2 0.2 0  0.2333333333333333 0.2 0  0.2666666666666667 0.2 0  0.3 0.2 0  0.3333333333333333 0.2 0  0.3666666666666666 0.2 0  0.4 0.2 0  0.4333333333333333 0.2 0  0.4666666666666667 0.2 0  0.5 0.2 0  0.5333333333333333 0.2 0  0.5666666666666667 0.2 0  0.6 0.2 0  0.6333333333333333 0.2 0  0.6666666666666666 0.2 0  0.7 0.2 0  0.7333333333333333 0.2 0  0.7666666666666667 0.2 0  0.8 0.2 0  0.8333333333333334 0.2 0  0.8666666666666667 0.2 0  0.9 0.2 0  0.9333333333333333 0.2 0  0.9666666666666667 0.2 0  1 0.2 0  0 0.2333333333333333 0  0.03333333333333333 0.2333333333333333 0  0.06666666666666667 0.2333333333333333 0  0.1 0.2333333333333333 0  0.1333333333333333 0.2333333333333333 0  0.1666666666666667 0.2333333333333333 0  0.2 0.2333333333333333 0  0.2333333333333333 0.2333333333333333 0  0.2666666666666667 0.2333333333333333 0  0.3 0.2333333333333333 0  0.3333333333333333 0.2333333333333333 0  0.3666666666666666 0.2333333333333333 0  0.4 0.2333333333333333 0  0.4333333333333333 0.2333333333333333 0  0.4666666666666667 0.2333333333333333 0  0.5 0.2333333333333333 0  0.5333333333333333 0.2333333333333333 0  0.5666666666666667 0.2333333333333333 0  0.6 0.2333333333333333 0  0.6333333333333333 0.2333333333333333 0  0.6666666666666666 0.2333333333333333 0  0.7 0.2333333333333333 0  0.7333333333333333 0.2333333333333333 0  0.7666666666666667 0.2333333333333333 0  0.8 0.2333333333333333 0  0.8333333333333334 0.2333333333333333 0  0.8666666666666667 0.2333333333333333 0  0.9 0.2333333333333333 0  0.9333333333333333 0.2333333333333333 0  0.9666666666666667 0.2333333333333333 0  1 0.2333333333333333 0  0 0.2666666666666667 0  0.03333333333333333 0.2666666666666667 0  0.06666666666666667 0.2666666666666667 0  0.1 0.2666666666666667 0  0.1333333333333333 0.2666666666666667 0  0.1666666666666667 0.2666666666666667 0  0.2 0.2666666666666667 0  0.2333333333333333 0.2666666666666667 0  0.2666666666666667 0.2666666666666667 0  0.3 0.2666666666666667 0  0.3333333333333333 0.2666666666666667 0  0.3666666666666666 0.2666666666666667 0  0.4 0.2666666666666667 0  0.4333333333333333 0.2666666666666667 0  0.4666666666666667 0.2666666666666667 0  0.5 0.2666666666666667 0  0.5333333333333333 0.2666666666666667 0  0.5666666666666667 0.2666666666666667 0  0.6 0.2666666666666667 0  0.6333333333333333 0.2666666666666667 0  0.6666666666666666 0.2666666666666667 0  0.7 0.2666666666666667 0  0.7333333333333333 0.2666666666666667 0  0.7666666666666667 0.2666666666666667 0  0.8 0.2666666666666667 0  0.8333333333333334 0.2666666666666667 0  0.8666666666666667 0.2666666666666667 0  0.9 0.2666666666666667 0  0.9333333333333333 0.2666666666666667 0  0.9666666666666667 0.2666666666666667 0  1 0.2666666666666667 0  0 0.3 0  0.03333333333333333 0.3 0  0.06666666666666667 0.3 0  0.1 0.3 0  0.1333333333333333 0.3 0  0.1666666666666667 0.3 0  0.2 0.3 0  0.2333333333333333 0.3 0  0.2666666666666667 0.3 0  0.3 0.3 0  0.3333333333333333 0.3 0  0.3666666666666666 0.3 0  0.4 0.3 0  0.4333333333333333 0.3 0  0.4666666666666667 0.3 0  0.5 0.3 0  0.5333333333333333 0.3 0  0.5666666666666667 0.3 0  0.6 0.3 0  0.6333333333333333 0.3 0  0.6666666666666666 0.3 0  0.7 0.3 0  0.7333333333333333 0.3 0  0.7666666666666667 0.3 0  0.8 0.3 0  0.8333333333333334 0.3 0  0.8666666666666667 0.3 0  0.9 0.3 0  0.9333333333333333 0.3 0  0.9666666666666667 0.3 0  1 0.3 0  0 0.3333333333333333 0  0.03333333333333333 0.3333333333333333 0  0.06666666666666667 0.3333333333333333 0  0.1 0.3333333333333333 0  0.1333333333333333 0.3333333333333333 0  0.1666666666666667 0.3333333333333333 0  0.2 0.3333333333333333 0  0.2333333333333333 0.3333333333333333 0  0.2666666666666667 0.3333333333333333 0  0.3 0.3333333333333333 0  0.3333333333333333 0.3333333333333333 0  0.3666666666666666 0.3333333333333333 0  0.4 0.3333333333333333 0  0.4333333333333333 0.3333333333333333 0  0.4666666666666667 0.3333333333333333 0  0.5 0.3333333333333333 0  0.5333333333333333 0.33333333333333
[...]
<PointData  Vectors="u_f"> 
<DataArray  type="Float64"  Name="u_f"  NumberOfComponents="3" format="ascii">2.7079506041207150e-06 -3.9909268580314537e-09 0.0000000000000000e+00  2.7079506010417435e-06 -3.9909185336355936e-09 0.0000000000000000e+00  2.7079506022764329e-06 -3.9909176101663932e-09 0.0000000000000000e+00  2.7079505998130714e-06 -3.9909217502465989e-09 0.0000000000000000e+00  2.7079506010365393e-06 -3.9909300899839198e-09 0.0000000000000000e+00  2.7079505851149762e-06 -3.9909315033498718e-09 0.0000000000000000e+00  2.7079505950487076e-06 -3.9909283518452070e-09 0.0000000000000000e+00  2.7079506002058236e-06 -3.9909188233886242e-09 0.0000000000000000e+00  2.7079506080730114e-06 -3.9909366382939911e-09 0.0000000000000000e+00  2.7079505956136311e-06 -3.9909316035301526e-09 0.0000000000000000e+00  2.7079506048891975e-06 -3.9909048566420281e-09 0.0000000000000000e+00  2.7079505851162772e-06 -3.9909627816067661e-09 0.0000000000000000e+00  2.7079505692750535e-06 -3.9909247534866167e-09 0.0000000000000000e+00  2.7079506109265231e-06 -3.9909127571148388e-09 0.0000000000000000e+00  2.7079506129807068e-06 -3.9909119595215106e-09 0.0000000000000000e+00  2.7079505922298361e-06 -3.9909107916731405e-09 0.0000000000000000e+00  2.7079506047821326e-06 -3.9909132901628369e-09 0.0000000000000000e+00  2.7079506068241731e-06 -3.9909431301171291e-09 0.0000000000000000e+00  2.7079505939149573e-06 -3.9909353247830591e-09 0.0000000000000000e+00  2.7079506004048831e-06 -3.9909129216967286e-09 0.0000000000000000e+00  2.7079505974671831e-06 -3.9909139719091630e-09 0.0000000000000000e+00  2.7079506043502948e-06 -3.9909187318819608e-09 0.0000000000000000e+00  2.7079506063515694e-06 -3.9908683119815012e-09 0.0000000000000000e+00  2.7079506400490066e-06 -3.9909016709849948e-09 0.0000000000000000e+00  2.7079505932020944e-06 -3.9909211611995586e-09 0.0000000000000000e+00  2.7079506132590757e-06 -3.9909130726718811e-09 0.0000000000000000e+00  2.7079506031121902e-06 -3.9909157636616732e-09 0.0000000000000000e+00  2.7079506124054833e-06 -3.9909278074672962e-09 0.0000000000000000e+00  2.7079505955391464e-06 -3.9909413295283712e-09 0.0000000000000000e+00  2.7079505946869093e-06 -3.9909153848956443e-09 0.0000000000000000e+00  2.7079506041207692e-06 8.9514884463149277e-10 0.0000000000000000e+00  4.1704761137920012e-04 -9.5792643130905228e-09 0.0000000000000000e+00  4.1704761137945632e-04 -9.5792685074350473e-09 0.0000000000000000e+00  4.1704761138446826e-04 -9.5792700461347705e-09 0.0000000000000000e+00  4.1704761138430997e-04 -9.5792736388555094e-09 0.0000000000000000e+00  4.1704761140128857e-04 -9.5792724780002433e-09 0.0000000000000000e+00  4.1704761137758585e-04 -9.5792758634215269e-09 0.0000000000000000e+00  4.1704761137594621e-04 -9.5792947548854410e-09 0.0000000000000000e+00  4.1704761137706186e-04 -9.5792857838714052e-09 0.0000000000000000e+00  4.1704761138352435e-04 -9.5792749752431072e-09 0.0000000000000000e+00  4.1704761137629175e-04 -9.5792699020443017e-09 0.0000000000000000e+00  4.1704761139545318e-04 -9.5792612034902719e-09 0.0000000000000000e+00  4.1704761135708251e-04 -9.5793140935827512e-09 0.0000000000000000e+00  4.1704761135481381e-04 -9.5793022973546943e-09 0.0000000000000000e+00  4.1704761138708758e-04 -9.5792778497883271e-09 0.0000000000000000e+00  4.1704761137991125e-04 -9.5792962543370455e-09 0.0000000000000000e+00  4.1704761138734335e-04 -9.5792676858266410e-09 0.0000000000000000e+00  4.1704761138435995e-04 -9.5792654011958231e-09 0.0000000000000000e+00  4.1704761138322511e-04 -9.5792740127968387e-09 0.0000000000000000e+00  4.1704761138402927e-04 -9.5792616652519771e-09 0.0000000000000000e+00  4.1704761137529591e-04 -9.5792837365724429e-09 0.0000000000000000e+00  4.1704761138383378e-04 -9.5792828294204851e-09 0.0000000000000000e+00  4.1704761139249363e-04 -9.5792754608572603e-09 0.0000000000000000e+00  4.1704761141198715e-04 -9.5792322519312398e-09 0.0000000000000000e+00  4.1704761140902273e-04 -9.5792597725602446e-09 0.0000000000000000e+00  4.1704761138075975e-04 -9.5792902304013550e-09 0.0000000000000000e+00  4.1704761138636258e-04 -9.5792875414715470e-09 0.0000000000000000e+00  4.1704761137715412e-04 -9.5792762719489055e-09 0.0000000000000000e+00  4.1704761138753677e-04 -9.5792807643406072e-09 0.0000000000000000e+00  4.1704761137476844e-04 -9.5792629192402098e-09 0.0000000000000000e+00  4.1704761139221846e-04 -9.5792715826660893e-09 0.0000000000000000e+00  4.1704761137920034e-04 2.5181651015786919e-09 0.0000000000000000e+00  7.5927591897664598e-04 -1.3625056012904133e-08 0.0000000000000000e+00  7.5927591898447143e-04 -1.3625046105573101e-08 0.0000000000000000e+00  7.5927591898224849e-04 -1.3625045299794046e-08 0.0000000000000000e+00  7.5927591897852111e-04 -1.3625068763880623e-08 0.0000000000000000e+00  7.5927591898158388e-04 -1.3625067607036905e-08 0.0000000000000000e+00  7.5927591897877265e-04 -1.3625066310981628e-08 0.0000000000000000e+00  7.5927591897372688e-04 -1.3625056916803484e-08 0.0000000000000000e+00  7.5927591898077712e-04 -1.3625059793842369e-08 0.0000000000000000e+00  7.5927591897550432e-04 -1.3625070780930344e-08 0.0000000000000000e+00  7.5927591897541054e-04 -1.3625061037964362e-08 0.0000000000000000e+00  7.5927591897992266e-04 -1.3625048149727877e-08 0.0000000000000000e+00  7.5927591895372834e-04 -1.3625095227087249e-08 0.0000000000000000e+00  7.5927591896152570e-04 -1.3625057841627937e-08 0.0000000000000000e+00  7.5927591897279306e-04 -1.3625062324695500e-08 0.0000000000000000e+00  7.5927591897053195e-04 -1.3625063411282917e-08 0.0000000000000000e+00  7.5927591898127065e-04 -1.3625069092502301e-08 0.0000000000000000e+00  7.5927591897916404e-04 -1.3625058040362195e-08 0.0000000000000000e+00  7.5927591897385460e-04 -1.3625055746190398e-08 0.0000000000000000e+00  7.5927591898379998e-04 -1.3625057586189905e-08 0.0000000000000000e+00  7.5927591899064889e-04 -1.3625045730005468e-08 0.0000000000000000e+00  7.5927591896946011e-04 -1.3625051120983930e-08 0.0000000000000000e+00  7.5927591897766698e-04 -1.3625061326036879e-08 0.0000000000000000e+00  7.5927591900794842e-04 -1.3625018826829600e-08 0.0000000000000000e+00  7.5927591901002087e-04 -1.3625057431365835e-08 0.0000000000000000e+00  7.5927591897359721e-04 -1.3625067111990193e-08 0.0000000000000000e+00  7.5927591896671437e-04 -1.3625053880495300e-08 0.0000000000000000e+00  7.5927591899080285e-04 -1.3625063879549835e-08 0.0000000000000000e+00  7.5927591897593941e-04 -1.3625058839636037e-08 0.0000000000000000e+00  7.5927591897787948e-04 -1.3625037743663845e-08 0.0000000000000000e+00  7.5927591898281781e-04 -1.3625052547793989e-08 0.0000000000000000e+00  7.5927591897664642e-04 3.7669884692354420e-09 0.0000000000000000e+00  9.7021854840964247e-04 -1.5259243848304502e-08 0.0000000000000000e+00  9.7021854841113845e-04 -1.5259248681894627e-08 0.0000000000000000e+00  9.7021854841520747e-04 -1.5259248237805417e-08 0.0000000000000000e+00  9.7021854841229118e-04 -1.5259262745731528e-08 0.0000000000000000e+00  9.7021854840107229e-04 -1.5259255969684790e-08 0.0000000000000000e+00  9.7021854840775661e-04 -1.5259260653655016e-08 0.0000000000000000e+00  9.7021854841123625e-04 -1.5259253764200731e-08 0.0000000000000000e+00  9.7021854841272985e-04 -1.5259254836910360e-08 0.0000000000000000e+00  9.7021854841165909e-04 -1.5259257713732405e-08 0.0000000000000000e+00  9.7021854841070824e-04 -1.5259271312880254e-08 0.0000000000000000e+00  9.7021854840829221e-04 -1.5259261763227519e-08 0.0000000000000000e+00  9.7021854839196239e-04 -1.5259242545744012e-08 0.0000000000000000e+00  9.7021854842268759e-04 -1.5259239600834071e-08 0.0000000000000000e+00  9.7021854841654927e-04 -1.5259250892366016e-08 0.0000000000000000e+00  9.7021854840180868e-04 -1.5259240995334905e-08 0.0000000000000000e+00  9.7021854841880572e-04 -1.5259257093568762e-08 0.0000000000000000e+00  9.7021854840553205e-04 -1.5259256340265093e-08 0.0000000000000000e+00  9.7021854840598524e-04 -1.5259261585201522e-08 0.0000000000000000e+00  9.7021854840432056e-04 -1.5259252727486614e-08 0.0000000000000000e+00  9.7021854841283285e-04 -1.5259258037041493e-08 0.0000000000000000e+00  9.7021854841344043e-04 -1.5259261136775504e-08 0.0000000000000000e+00  9.7021854839832123e-04 -1.5259253788920540e-08 0.0000000000000000e+00  9.7021854843482112e-04 -1.5259255460109769e-08 0.0000000000000000e+00  9.7021854840619276e-04 -1.5259253075081830e-08 0.0000000000000000e+00  9.7021854841280401e-04 -1.5259248317385857e-08 0.0000000000000000e+00  9.7021854841165562e-04 -1.5259262413748823e-08 0.0000000000000000e+00  9.7021854840066007e-04 -1.5259251208085689e-08 0.0000000000000000e+00  9.7021854841526861e-04 -1.5259256217967088e-08 0.0000000000000000e+00  9.7021854840315656e-04 -1.5259250618062867e-08 0.0000000000000000e+00  9.7021854842184799e-04 -1.5259238380456105e-08 0.0000000000000000e+00  9.7021854840964269e-04 4.3762766197737727e-09 0.0000000000000000e+00  1.0134016357382729e-03 -1.4091475063096430e-08 0.0000000000000000e+00  1.0134016357461815e-03 -1.4091474135019370e-08 0.0000000000000000e+00  1.0134016357480967e-03 -1.4091479116819933e-08 0.0000000000000000e+00  1.0134016357459109e-03 -1.4091476059695067e-08 0.0000000000000000e+00  1.0134016357513829e-03 -1.4091486656578681e-08 0.0000000000000000e+00  1.0134016357426800e-03 -1.4091484920662582e-08 0.0000000000000000e+00  1.0134016357455531e-03 -1.4091486640857749e-08 0.0000000000000000e+00  1.0134016357373459e-03 -1.4091494285025166e-08 0.0000000000000000e+00  1.0134016357461026e-03 -1.4091475144411593e-08 0.0000000000000000e+00  1.0134016357541500e-03 -1.4091477885274685e-08 0.0000000000000000e+00  1.0134016357489458e-03 -1.4091487226326922e-08 0.0000000000000000e+00  1.0134016357419718e-03 -1.4091477649352292e-08 0.0000000000000000e+00  1.0134016357509960e-03 -1.4091479194231968e-08 0.0000000000000000e+00  1.0134016357507645e-03 -1.4091500105456109e-08 0.0000000000000000e+00  1.0134016357394226e-03 -1.4091497706225121e-08 0.0000000000000000e+00  1.0134016357456143e-03 -1.4091491429995585e-08 0.0000000000000000e+00  1.0134016357466005e-03 -1.4091489360362058e-08 0.0000000000000000e+00  1.0134016357382014e-03 -1.4091489651036661e-08 0.0000000000000000e+00  1.0134016357424595e-03 -1.4091474779794402e-08 0.0000000000000000e+00  1.0134016357415485e-03 -1.4091468950798262e-08 0.0000000000000000e+00  1.0134016357581190e-03 -1.4091482704444921e-08 0.0000000000000000e+00  1.0134016357418027e-03 -1.4091481241747771e-08 0.0000000000000000e+00  1.0134016357458511e-03 -1.4091480668638502e-08 0.0000000000000000e+00  1.0134016357487071e-03 -1.4091465993853677e-08 0.0000000000000000e+00  1.0134016357545071e-03 -1.4091491046296437e-08 0.0000000000000000e+00  1.0134016357451108e-03 -1.4091471516562704e-08 0.0000000000000000e+00  1.0134016357440895e-03 -1.4091472193538540e-08 0.0000000000000000e+00  1.0134016357520226e-03 -1.4091474588107458e-08 0.0000000000000000e+00  1.0134016357495352e-03 -1.4091475209030042e-08 0.0000000000000000e+00  1.0134016357533399e-03 -1.4091480800694327e-08 0.0000000000000000e+00  1.0134016357382732e-03 4.1919396468126326e-09 0.0000000000000000e+00  8.8135841861761459e-04 -1.0348806555519723e-08 0.0000000000000000e+00  8.8135841861562280e-04 -1.0348794050657126e-08 0.0000000000000000e+00  8.8135841861205111e-04 -1.0348811237321544e-08 0.0000000000000000e+00  8.8135841861281797e-04 -1.0348805282991633e-08 0.0000000000000000e+00  8.8135841860806114e-04 -1.0348800203396034e-08 0.0000000000000000e+00  8.8135841861068426e-04 -1.0348799601230148e-08 0.0000000000000000e+00  8.8135841862020713e-04 -1.0348802807215972e-08 0.0000000000000000e+00  8.8135841861369346e-04 -1.0348811251958273e-08 0.0000000000000000e+00  8.8135841861364933e-04 -1.0348804565466635e-08 0.0000000000000000e+00  8.8135841861633815e-04 -1.0348805925056159e-08 0.0000000000000000e+00  8.8135841861961125e-04 -1.0348799387100219e-08 0.0000000000000000e+00  8.8135841861901462e-04 -1.0348800243403095e-08 0.0000000000000000e+00  8.8135841861146814e-04 -1.0348811960918074e-08 0.0000000000000000e+00  8.8135841862130608e-04 -1.0348798842397047e-08 0.0000000000000000e+00  8.8135841861207225e-04 -1.0348797799611398e-08 0.0000000000000000e+00  8.8135841861241237e-04 -1.0348777249968681e-08 0.0000000000000000e+00  8.8135841862617826e-04 -1.0348801265372062e-08 0.0000000000000000e+00  8.8135841861503191e-04 -1.0348791301011996e-08 0.0000000000000000e+00  8.8135841861764516e-04 -1.0348801083009257e-08 0.0000000000000000e+00  8.8135841861449577e-04 -1.0348797322996123e-08 0.0000000000000000e+00  8.8135841861799904e-04 -1.0348794926258800e-08 0.0000000000000000e+00  8.8135841862373914e-04 -1.0348807027364508e-08 0.0000000000000000e+00  8.8135841860752945e-04 -1.0348796241829716e-08 0.0000000000000000e+00  8.8135841861507029e-04 -1.0348809182324746e-08 0.0000000000000000e+00  8.8135841862995248e-04 -1.0348808198628115e-08 0.0000000000000000e+00  8.8135841860123901e-04 -1.0348799457790200e-08 0.0000000000000000e+00  8.8135841862396519e-04 -1.0348799375932936e-08 0.0000000000000000e+00  8.8135841861425855e-04 -1.0348806500767513e-08 0.0000000000000000e+00  8.8135841862946069e-04 -1.0348796802904341e-08 0.0000000000000000e+00  8.8135841861940037e-04 -1.0348799429926205e-08 0.0000000000000000e+00  8.8135841861761480e-04 3.2300831651468891e-09 0.0000000000000000e+00  5.9692031659411347e-04 -4.8197206422304420e-09 0.0000000000000000e+00  5.9692031659158056e-04 -4.8197125068110205e-09 0.0000000000000000e+00  5.9692031660752191e-04 -4.8197184450405293e-09 0.0000000000000000e+00  5.9692031658189148e-04 -4.8197161434961576e-09 0.0000000000000000e+00  5.9692031660217495e-04 -4.8197194149135827e-09 0.0000000000000000e+00  5.9692031659454520e-04 -4.8196947209622719e-09 0.0000000000000000e+00  5.9692031660573503e-04 -4.8196995586723655e-09 0.0000000000000000e+00  5.9692031659548564e-04 -4.8197019621317415e-09 0.0000000000000000e+00  5.9692031660309381e-04 -4.8197081203458711e-09 0.0000000000000000e+00  5.9692031660379366e-04 -4.8197161419782746e-09 0.0000000000000000e+00  5.9692031659205782e-04 -4.8197155600869686e-09 0.0000000000000000e+00  5.9692031658923456e-04 -4.8197150776712119e-09 0.0000000000000000e+00  5.9692031659501466e-04 -4.8197190475316766e-09 0.0000000000000000e+00  5.9692031660349963e-04 -4.8197247421951674e-09 0.0000000000000000e+00  5.9692031659592561e-04 -4.8197296592688600e-09 0.0000000000000000e+00  5.9692031660290711e-04 -4.8197181383739449e-09 0.0000000000000000e+00  5.9692031659415597e-04 -4.8197166821277969e-09 0.0000000000000000e+00  5.9692031659870463e-04 -4.8197068325847407e-09 0.0000000000000000e+00  5.9692031660499279e-04 -4.8197005687151094e-09 0.0000000000000000e+00  5.9692031658672268e-04 -4.8197169057987051e-09 0.0000000000000000e+00  5.9692031660474700e-04 -4.8197146318472786e-09 0.0000000000000000e+00  5.9692031659748382e-04 -4.8197205829787933e-09 0.0000000000000000e+00  5.9692031659952581e-04 -4.8197096481493625e-09 0.0000000000000000e+00  5.9692031659434029e-04 -4.8197061006398541e-09 0.0000000000000000e+00  5.9692031660142837e-04 -4.8197080922108247e-09 0.0000000000000000e+00  5.9692031660225214e-04 -4.8197262600782088e-09 0.0000000000000000e+00  5.9692031658706366e-04 -4.8197057253432721e-09 0.0000000000000000e+00  5.9692031660498292e-04 -4.8197063626373091e-09 0.0000000000000000e+00  5.9692031660521863e-04 -4.8197173406179863e-09 0.0000000000000000e+00  5.9692031659775531e-04 -4.8197117460263561e-09 0.0000000000000000e+00  5.9692031659411369e-04 1.6842866574765501e-09 0.0000000000000000e+00  2.0926920583223837e-04 1.3757120059695567e-09 0.0000000000000000e+00  2.0926920581980710e-04 1.3757005160150611e-09 0.0000000000000000e+00  2.0926920583376994e-04 1.3757236792219822e-09 0.0000000000000000e+00  2.0926920581760828e-04 1.3757228965635389e-09 0.0000000000000000e+00  2.0926920583863080e-04 1.3757191660813614e-09 0.0000000000000000e+00  2.0926920582099099e-04 1.3757013266052628e-09 0.0000000000000000e+00  2.0926920582368019e-04 1.3757066430448257e-09 0.0000000000000000e+00  2.0926920582965434e-04 1.3757101817045338e-09 0.0000000000000000e+00  2.0926920582815502e-04 1.3757044067965298e-09 0.0000000000000000e+00  2.0926920583272263e-04 1.3757129744466998e-09 0.0000000000000000e+00  2.0926920583462776e-04 1.3757078175068290e-09 0.0000000000000000e+00  2.0926920581720214e-04 1.3757080334121392e-09 0.0000000000000000e+00  2.0926920583593648e-04 1.3757221353045360e-09 0.0000000000000000e+00  2.0926920582588107e-04 1.3757257889167795e-09 0.0000000000000000e+00  2.0926920583190747e-04 1.3757168412808531e-09 0.0000000000000000e+00  2.0926920582234348e-04 1.3756914798133697e-09 0.0000000000000000e+00  2.0926920582538179e-04 1.3757046813165199e-09 0.0000000000000000e+00  2.0926920583709194e-04 1.3757141271568971e-09 0.0000000000000000e+00  2.0926920583286325e-04 1.3757026129433778e-09 0.0000000000000000e+00  2.0926920582334713e-04 1.3757058042653675e-09 0.0000000000000000e+00  2.0926920581928489e-04 1.3757037741374571e-09 0.0000000000000000e+00  2.0926920582892207e-04 1.3757006129156302e-09 0.0000000000000000e+00  2.0926920581933149e-04 1.3757223871918058e-09 0.0000000000000000e+00  2.0926920582412583e-04 1.3757197116247896e-09 0.0000000000000000e+00  2.0926920583798554e-04 1.3757073684844993e-09 0.0000000000000000e+00  2.0926920583398158e-04 1.3757066942462733e-09 0.0000000000000000e+00  2.0926920582167247e-04 1.3757077612096312e-09 0.0000000000000000e+00  2.0926920582674073e-04 1.3757044597598059e-09 0.0000000000000000e+00  2.0926920583279421e-04 1.3757074346479369e-09 0.0000000000000000e+00  2.0926920582559256e-04 1.3757038356117203e-09 0.0000000000000000e+00  2.0926920583223834e-04 -1.2613930629024878e-10 0.0000000000000000e+00  -2.1456653719690601e-04 7.0880046286513412e-09 0.0000000000000000e+00  -2.1456653719765812e-04 7.0879982984285370e-09 0.0000000000000000e+00  -2.1456653720007904e-04 7.0880031084372651e-09 0.0000000000000000e+00  -2.1456653720096689e-04 7.0880027108061183e-09 0.0000000000000000e+00  -2.1456653718826378e-04 7.0879960237181690e-09 0.0000000000000000e+00  -2.1456653721322217e-04 7.0880031616715918e-09 0.0000000000000000e+00  -2.1456653720562386e-04 7.0880042268460161e-09 0.0000000000000000e+00  -2.1456653720619453e-04 7.0880174148644018e-09 0.0000000000000000e+00  -2.1456653719860056e-04 7.0880096978385987e-09 0.0000000000000000e+00  -2.1456653718836477e-04 7.0880042481505888e-09 0.0000000000000000e+00  -2.1456653719616924e-04 7.0880005015273514e-09 0.0000000000000000e+00  -2.1456653720093138e-04 7.0880195761130124e-09 0.0000000000000000e+00  -2.1456653719512689e-04 7.0879919300418162e-09 0.0000000000000000e+00  -2.1456653720399116e-04 7.0879970879168114e-09 0.0000000000000000e+00  -2.1456653720271305e-04 7.0879784172506698e-09 0.0000000000000000e+00  -2.1456653720273067e-04 7.0880045899453237e-09 0.0000000000000000e+00  -2.1456653719326710e-04 7.0880037636748480e-09 0.0000000000000000e+00  -2.1456653719667068e-04 7.0880046092441223e-09 0.0000000000000000e+00  -2.1456653720115673e-04 7.0879943317122586e-09 0.0000000000000000e+00  -2.1456653720689899e-04 7.0880057324775730e-09 0.0000000000000000e+00  -2.1456653718628121e-04 7.0880069684138396e-09 0.0000000000000000e+00  -2.1456653721484891e-04 7.0879880702820822e-09 0.0000000000000000e+00  -2.1456653720035518e-04 7.0879906332818078e-09 0.0000000000000000e+00  -2.1456653720731083e-04 7.0880102704599761e-09 0.0000000000000000e+00  -2.1456653719663821e-04 7.0880059456317202e-09 0.0000000000000000e+00  -2.1456653719707813e-04 7.0880028093600958e-09 0.0000000000000000e+00  -2.1456653720299852e-04 7.0880149448350124e-09 0.0000000000000000e+00  -2.1456653718770146e-04 7.0880076148693849e-09 0.0000000000000000e+00  -2.1456653719210928e-04 7.0880181268599685e-09 0.0000000000000000e+00  -2.1456653719918950e-04 7.0880084622275928e-09 0.0000000000000000e+00  -2.1456653719690617e-04 -1.8455646883721966e-09 0.0000000000000000e+00  -6.0130183601604008e-04 1.1388681024604962e-08 0.0000000000000000e+00  -6.0130183601765771e-04 1.1388693387653914e-08 0.0