<?xml version="1.0"?>
<VTKFile type="UnstructuredGrid"  version="0.1"  >
<UnstructuredGrid>
<Piece  NumberOfPoints="961" NumberOfCells="1800">
<Points>
<DataArray  type="Float64"  NumberOfComponents="3"  format="ascii">0 0 0  0.03333333333333333 0 0  0.06666666666666667 0 0  0.1 0 0  0.1333333333333333 0 0  0.1666666666666667 0 0  0.2 0 0  0.2333333333333333 0 0  0.2666666666666667 0 0  0.3 0 0  0.3333333333333333 0 0  0.3666666666666666 0 0  0.4 0 0  0.4333333333333333 0 0  0.4666666666666667 0 0  0.5 0 0  0.5333333333333333 0 0  0.5666666666666667 0 0  0.6 0 0  0.6333333333333333 0 0  0.6666666666666666 0 0  0.7 0 0  0.7333333333333333 0 0  0.7666666666666667 0 0  0.8 0 0  0.8333333333333334 0 0  0.8666666666666667 0 0  0.9 0 0  0.9333333333333333 0 0  0.9666666666666667 0 0  1 0 0  0 0.03333333333333333 0  0.03333333333333333 0.03333333333333333 0  0.06666666666666667 0.03333333333333333 0  0.1 0.03333333333333333 0  0.1333333333333333 0.03333333333333333 0  0.1666666666666667 0.03333333333333333 0  0.2 0.03333333333333333 0  0.2333333333333333 0.03333333333333333 0  0.2666666666666667 0.03333333333333333 0  0.3 0.03333333333333333 0  0.3333333333333333 0.03333333333333333 0  0.3666666666666666 0.03333333333333333 0  0.4 0.03333333333333333 0  0.4333333333333333 0.03333333333333333 0  0.4666666666666667 0.03333333333333333 0  0.5 0.03333333333333333 0  0.5333333333333333 0.03333333333333333 0  0.5666666666666667 0.03333333333333333 0  0.6 0.03333333333333333 0  0.6333333333333333 0.03333333333333333 0  0.6666666666666666 0.03333333333333333 0  0.7 0.03333333333333333 0  0.7333333333333333 0.03333333333333333 0  0.7666666666666667 0.03333333333333333 0  0.8 0.03333333333333333 0  0.8333333333333334 0.03333333333333333 0  0.8666666666666667 0.03333333333333333 0  0.9 0.03333333333333333 0  0.9333333333333333 0.03333333333333333 0  0.9666666666666667 0.03333333333333333 0  1 0.03333333333333333 0  0 0.06666666666666667 0  0.03333333333333333 0.06666666666666667 0  0.06666666666666667 0.06666666666666667 0  0.1 0.06666666666666667 0  0.1333333333333333 0.06666666666666667 0  0.1666666666666667 0.06666666666666667 0  0.2 0.06666666666666667 0  0.2333333333333333 0.06666666666666667 0  0.2666666666666667 0.06666666666666667 0  0.3 0.06666666666666667 0  0.3333333333333333 0.06666666666666667 0  0.3666666666666666 0.06666666666666667 0  0.4 0.06666666666666667 0  0.4333333333333333 0.06666666666666667 0  0.4666666666666667 0.06666666666666667 0  0.5 0.06666666666666667 0  0.5333333333333333 0.06666666666666667 0  0.5666666666666667 0.06666666666666667 0  0.6 0.06666666666666667 0  0.6333333333333333 0.06666666666666667 0  0.6666666666666666 0.06666666666666667 0  0.7 0.06666666666666667 0  0.7333333333333333 0.06666666666666667 0  0.7666666666666667 0.06666666666666667 0  0.8 0.06666666666666667 0  0.8333333333333334 0.06666666666666667 0  0.8666666666666667 0.06666666666666667 0  0.9 0.06666666666666667 0  0.9333333333333333 0.06666666666666667 0  0.9666666666666667 0.06666666666666667 0  1 0.06666666666666667 0  0 0.1 0  0.03333333333333333 0.1 0  0.06666666666666667 0.1 0  0.1 0.1 0  0.1333333333333333 0.1 0  0.1666666666666667 0.1 0  0.2 0.1 0  0.2333333333333333 0.1 0  0.2666666666666667 0.1 0  0.3 0.1 0  0.3333333333333333 0.1 0  0.3666666666666666 0.1 0  0.4 0.1 0  0.4333333333333333 0.1 0  0.4666666666666667 0.1 0  0.5 0.1 0  0.5333333333333333 0.1 0  0.5666666666666667 0.1 0  0.6 0.1 0  0.6333333333333333 0.1 0  0.6666666666666666 0.1 0  0.7 0.1 0  0.7333333333333333 0.1 0  0.7666666666666667 0.1 0  0.8 0.1 0  0.8333333333333334 0.1 0  0.8666666666666667 0.1 0  0.9 0.1 0  0.9333333333333333 0.1 0  0.9666666666666667 0.1 0  1 0.1 0  0 0.1333333333333333 0  0.03333333333333333 0.1333333333333333 0  0.06666666666666667 0.1333333333333333 0  0.1 0.1333333333333333 0  0.1333333333333333 0.1333333333333333 0  0.1666666666666667 0.1333333333333333 0  0.2 0.1333333333333333 0  0.2333333333333333 0.1333333333333333 0  0.2666666666666667 0.1333333333333333 0  0.3 0.1333333333333333 0  0.3333333333333333 0.1333333333333333 0  0.3666666666666666 0.1333333333333333 0  0.4 0.1333333333333333 0  0.4333333333333333 0.1333333333333333 0  0.4666666666666667 0.1333333333333333 0  0.5 0.1333333333333333 0  0.5333333333333333 0.1333333333333333 0  0.5666666666666667 0.1333333333333333 0  0.6 0.1333333333333333 0  0.6333333333333333 0.1333333333333333 0  0.6666666666666666 0.1333333333333333 0  0.7 0.1333333333333333 0  0.7333333333333333 0.1333333333333333 0  0.7666666666666667 0.1333333333333333 0  0.8 0.1333333333333333 0  0.8333333333333334 0.1333333333333333 0  0.8666666666666667 0.1333333333333333 0  0.9 0.1333333333333333 0  0.9333333333333333 0.1333333333333333 0  0.9666666666666667 0.1333333333333333 0  1 0.1333333333333333 0  0 0.1666666666666667 0  0.03333333333333333 0.1666666666666667 0  0.06666666666666667 0.1666666666666667 0  0.1 0.1666666666666667 0  0.1333333333333333 0.1666666666666667 0  0.1666666666666667 0.1666666666666667 0  0.2 0.1666666666666667 0  0.2333333333333333 0.1666666666666667 0  0.2666666666666667 0.1666666666666667 0  0.3 0.1666666666666667 0  0.3333333333333333 0.1666666666666667 0  0.3666666666666666 0.1666666666666667 0  0.4 0.1666666666666667 0  0.4333333333333333 0.1666666666666667 0  0.4666666666666667 0.1666666666666667 0  0.5 0.1666666666666667 0  0.5333333333333333 0.1666666666666667 0  0.5666666666666667 0.1666666666666667 0  0.6 0.1666666666666667 0  0.6333333333333333 0.1666666666666667 0  0.6666666666666666 0.1666666666666667 0  0.7 0.1666666666666667 0  0.7333333333333333 0.1666666666666667 0  0.7666666666666667 0.1666666666666667 0  0.8 0.1666666666666667 0  0.8333333333333334 0.1666666666666667 0  0.8666666666666667 0.1666666666666667 0  0.9 0.1666666666666667 0  0.9333333333333333 0.1666666666666667 0  0.9666666666666667 0.1666666666666667 0  1 0.1666666666666667 0  0 0.2 0  0.03333333333333333 0.2 0  0.06666666666666667 0.2 0  0.1 0.2 0  0.1333333333333333 0.2 0  0.1666666666666667 0.2 0  0.2 0.2 0  0.2333333333333333 0.2 0  0.2666666666666667 0.2 0  0.3 0.2 0  0.3333333333333333 0.2 0  0.3666666666666666 0.2 0  0.4 0.2 0  0.4333333333333333 0.2 0  0.4666666666666667 0.2 0  0.5 0.2 0  0.5333333333333333 0.2 0  0.5666666666666667 0.2 0  0.6 0.2 0  0.6333333333333333 0.2 0  0.6666666666666666 0.2 0  0.7 0.2 0  0.7333333333333333 0.2 0  0.7666666666666667 0.2 0  0.8 0.2 0  0.8333333333333334 0.2 0  0.8666666666666667 0.2 0  0.9 0.2 0  0.9333333333333333 0.2 0  0.9666666666666667 0.2 0  1 0.2 0  0 0.2333333333333333 0  0.03333333333333333 0.2333333333333333 0  0.06666666666666667 0.2333333333333333 0  0.1 0.2333333333333333 0  0.1333333333333333 0.2333333333333333 0  0.1666666666666667 0.2333333333333333 0  0.2 0.2333333333333333 0  0.2333333333333333 0.2333333333333333 0  0.2666666666666667 0.2333333333333333 0  0.3 0.2333333333333333 0  0.3333333333333333 0.2333333333333333 0  0.3666666666666666 0.2333333333333333 0  0.4 0.2333333333333333 0  0.4333333333333333 0.2333333333333333 0  0.4666666666666667 0.2333333333333333 0  0.5 0.2333333333333333 0  0.5333333333333333 0.2333333333333333 0  0.5666666666666667 0.2333333333333333 0  0.6 0.2333333333333333 0  0.6333333333333333 0.2333333333333333 0  0.6666666666666666 0.2333333333333333 0  0.7 0.2333333333333333 0  0.7333333333333333 0.2333333333333333 0  0.7666666666666667 0.2333333333333333 0  0.8 0.2333333333333333 0  0.8333333333333334 0.2333333333333333 0  0.8666666666666667 0.2333333333333333 0  0.9 0.2333333333333333 0  0.9333333333333333 0.2333333333333333 0  0.9666666666666667 0.2333333333333333 0  1 0.2333333333333333 0  0 0.2666666666666667 0  0.03333333333333333 0.2666666666666667 0  0.06666666666666667 0.2666666666666667 0  0.1 0.2666666666666667 0  0.1333333333333333 0.2666666666666667 0  0.1666666666666667 0.2666666666666667 0  0.2 0.2666666666666667 0  0.2333333333333333 0.2666666666666667 0  0.2666666666666667 0.2666666666666667 0  0.3 0.2666666666666667 0  0.3333333333333333 0.2666666666666667 0  0.3666666666666666 0.2666666666666667 0  0.4 0.2666666666666667 0  0.4333333333333333 0.2666666666666667 0  0.4666666666666667 0.2666666666666667 0  0.5 0.2666666666666667 0  0.5333333333333333 0.2666666666666667 0  0.5666666666666667 0.2666666666666667 0  0.6 0.2666666666666667 0  0.6333333333333333 0.2666666666666667 0  0.6666666666666666 0.2666666666666667 0  0.7 0.2666666666666667 0  0.7333333333333333 0.2666666666666667 0  0.7666666666666667 0.2666666666666667 0  0.8 0.2666666666666667 0  0.8333333333333334 0.2666666666666667 0  0.8666666666666667 0.2666666666666667 0  0.9 0.2666666666666667 0  0.9333333333333333 0.2666666666666667 0  0.9666666666666667 0.2666666666666667 0  1 0.2666666666666667 0  0 0.3 0  0.03333333333333333 0.3 0  0.06666666666666667 0.3 0  0.1 0.3 0  0.1333333333333333 0.3 0  0.1666666666666667 0.3 0  0.2 0.3 0  0.2333333333333333 0.3 0  0.2666666666666667 0.3 0  0.3 0.3 0  0.3333333333333333 0.3 0  0.3666666666666666 0.3 0  0.4 0.3 0  0.4333333333333333 0.3 0  0.4666666666666667 0.3 0  0.5 0.3 0  0.5333333333333333 0.3 0  0.5666666666666667 0.3 0  0.6 0.3 0  0.6333333333333333 0.3 0  0.6666666666666666 0.3 0  0.7 0.3 0  0.7333333333333333 0.3 0  0.7666666666666667 0.3 0  0.8 0.3 0  0.8333333333333334 0.3 0  0.8666666666666667 0.3 0  0.9 0.3 0  0.9333333333333333 0.3 0  0.9666666666666667 0.3 0  1 0.3 0  0 0.3333333333333333 0  0.03333333333333333 0.3333333333333333 0  0.06666666666666667 0.3333333333333333 0  0.1 0.3333333333333333 0  0.1333333333333333 0.3333333333333333 0  0.1666666666666667 0.3333333333333333 0  0.2 0.3333333333333333 0  0.2333333333333333 0.3333333333333333 0  0.2666666666666667 0.3333333333333333 0  0.3 0.3333333333333333 0  0.3333333333333333 0.3333333333333333 0  0.3666666666666666 0.3333333333333333 0  0.4 0.3333333333333333 0  0.4333333333333333 0.3333333333333333 0  0.4666666666666667 0.3333333333333333 0  0.5 0.3333333333333333 0  0.5333333333333333 0.33333333333333
[...]
<PointData  Vectors="u_f"> 
<DataArray  type="Float64"  Name="u_f"  NumberOfComponents="3" format="ascii">2.7084542810469994e-06 -1.9302687952801184e-09 0.0000000000000000e+00  2.7084542892120717e-06 -1.9302918477493401e-09 0.0000000000000000e+00  2.7084542780943916e-06 -1.9302931848958794e-09 0.0000000000000000e+00  2.7084542667926139e-06 -1.9303090394552982e-09 0.0000000000000000e+00  2.7084542635001630e-06 -1.9302639057993710e-09 0.0000000000000000e+00  2.7084542535617696e-06 -1.9302647922430673e-09 0.0000000000000000e+00  2.7084542957644476e-06 -1.9302601486051625e-09 0.0000000000000000e+00  2.7084542762829066e-06 -1.9302943787108916e-09 0.0000000000000000e+00  2.7084542834936100e-06 -1.9302917524479692e-09 0.0000000000000000e+00  2.7084542770851078e-06 -1.9302765883627039e-09 0.0000000000000000e+00  2.7084542670556956e-06 -1.9302533105420606e-09 0.0000000000000000e+00  2.7084542587863772e-06 -1.9303969856529317e-09 0.0000000000000000e+00  2.7084542043869669e-06 -1.9302992115420754e-09 0.0000000000000000e+00  2.7084542788501347e-06 -1.9302966674074676e-09 0.0000000000000000e+00  2.7084542812974501e-06 -1.9302905617771433e-09 0.0000000000000000e+00  2.7084542773501952e-06 -1.9302974280295017e-09 0.0000000000000000e+00  2.7084542803468758e-06 -1.9302886112432249e-09 0.0000000000000000e+00  2.7084542846197708e-06 -1.9302899357045988e-09 0.0000000000000000e+00  2.7084542495714719e-06 -1.9302889349859936e-09 0.0000000000000000e+00  2.7084542986639294e-06 -1.9302762256428671e-09 0.0000000000000000e+00  2.7084542816074235e-06 -1.9302866534451520e-09 0.0000000000000000e+00  2.7084542625290431e-06 -1.9302923019758403e-09 0.0000000000000000e+00  2.7084543023431695e-06 -1.9301984594531120e-09 0.0000000000000000e+00  2.7084543399045948e-06 -1.9302618521578260e-09 0.0000000000000000e+00  2.7084542718980678e-06 -1.9302956410474810e-09 0.0000000000000000e+00  2.7084542826734111e-06 -1.9302954213881209e-09 0.0000000000000000e+00  2.7084542676953749e-06 -1.9302858672359466e-09 0.0000000000000000e+00  2.7084542990831362e-06 -1.9302726066844356e-09 0.0000000000000000e+00  2.7084542745462316e-06 -1.9302671738015593e-09 0.0000000000000000e+00  2.7084542850951934e-06 -1.9302741564430209e-09 0.0000000000000000e+00  2.7084542810470536e-06 3.9068310090200850e-10 0.0000000000000000e+00  4.1704899714916450e-04 -5.8361721112310319e-09 0.0000000000000000e+00  4.1704899714157227e-04 -5.8361652717584672e-09 0.0000000000000000e+00  4.1704899714811044e-04 -5.8361687303633974e-09 0.0000000000000000e+00  4.1704899713957387e-04 -5.8361731170453873e-09 0.0000000000000000e+00  4.1704899713140657e-04 -5.8362007510819394e-09 0.0000000000000000e+00  4.1704899714754828e-04 -5.8361794125737221e-09 0.0000000000000000e+00  4.1704899713423732e-04 -5.8361695119647436e-09 0.0000000000000000e+00  4.1704899714699697e-04 -5.8361565369920848e-09 0.0000000000000000e+00  4.1704899715255784e-04 -5.8361685070177499e-09 0.0000000000000000e+00  4.1704899714603766e-04 -5.8361817850249159e-09 0.0000000000000000e+00  4.1704899713977141e-04 -5.8361736851673257e-09 0.0000000000000000e+00  4.1704899706665477e-04 -5.8362503040001318e-09 0.0000000000000000e+00  4.1704899710272411e-04 -5.8361733823496589e-09 0.0000000000000000e+00  4.1704899715943960e-04 -5.8361682154757857e-09 0.0000000000000000e+00  4.1704899711907171e-04 -5.8362074719427864e-09 0.0000000000000000e+00  4.1704899714736527e-04 -5.8361696421774245e-09 0.0000000000000000e+00  4.1704899715077097e-04 -5.8361646299107811e-09 0.0000000000000000e+00  4.1704899712628838e-04 -5.8361637466112712e-09 0.0000000000000000e+00  4.1704899715158509e-04 -5.8361559978183444e-09 0.0000000000000000e+00  4.1704899715529339e-04 -5.8361808944612514e-09 0.0000000000000000e+00  4.1704899713617620e-04 -5.8361675918426961e-09 0.0000000000000000e+00  4.1704899712502626e-04 -5.8361934577623453e-09 0.0000000000000000e+00  4.1704899721560994e-04 -5.8360631167118926e-09 0.0000000000000000e+00  4.1704899718251597e-04 -5.8361580355763276e-09 0.0000000000000000e+00  4.1704899714162214e-04 -5.8361529933857043e-09 0.0000000000000000e+00  4.1704899716051122e-04 -5.8361767393648456e-09 0.0000000000000000e+00  4.1704899712931797e-04 -5.8361870375507607e-09 0.0000000000000000e+00  4.1704899714713976e-04 -5.8361912314616043e-09 0.0000000000000000e+00  4.1704899714106931e-04 -5.8361828762744025e-09 0.0000000000000000e+00  4.1704899713535329e-04 -5.8361787405852156e-09 0.0000000000000000e+00  4.1704899714916472e-04 1.0631680171566419e-09 0.0000000000000000e+00  7.5927792048602566e-04 -8.9615243437785042e-09 0.0000000000000000e+00  7.5927792050602203e-04 -8.9615352453229283e-09 0.0000000000000000e+00  7.5927792048938994e-04 -8.9615593121174925e-09 0.0000000000000000e+00  7.5927792048427077e-04 -8.9615270071211409e-09 0.0000000000000000e+00  7.5927792048571558e-04 -8.9615396366669875e-09 0.0000000000000000e+00  7.5927792046581971e-04 -8.9615477837957924e-09 0.0000000000000000e+00  7.5927792048199189e-04 -8.9615359881098366e-09 0.0000000000000000e+00  7.5927792049152094e-04 -8.9615475405008249e-09 0.0000000000000000e+00  7.5927792048768883e-04 -8.9615398600126350e-09 0.0000000000000000e+00  7.5927792048086616e-04 -8.9615252813965429e-09 0.0000000000000000e+00  7.5927792050361174e-04 -8.9615333948066603e-09 0.0000000000000000e+00  7.5927792040557829e-04 -8.9616634920200444e-09 0.0000000000000000e+00  7.5927792042892062e-04 -8.9615650923245346e-09 0.0000000000000000e+00  7.5927792047753083e-04 -8.9615465158213517e-09 0.0000000000000000e+00  7.5927792048638377e-04 -8.9615548234120782e-09 0.0000000000000000e+00  7.5927792047836209e-04 -8.9615321429868319e-09 0.0000000000000000e+00  7.5927792049872611e-04 -8.9615432793694466e-09 0.0000000000000000e+00  7.5927792047596871e-04 -8.9615435749229588e-09 0.0000000000000000e+00  7.5927792050337810e-04 -8.9615565228989835e-09 0.0000000000000000e+00  7.5927792047366586e-04 -8.9615766234651603e-09 0.0000000000000000e+00  7.5927792047721500e-04 -8.9615592999744281e-09 0.0000000000000000e+00  7.5927792047925970e-04 -8.9615721105820376e-09 0.0000000000000000e+00  7.5927792054588782e-04 -8.9614508984054569e-09 0.0000000000000000e+00  7.5927792054006468e-04 -8.9615321140386339e-09 0.0000000000000000e+00  7.5927792047278647e-04 -8.9615534295617652e-09 0.0000000000000000e+00  7.5927792049422873e-04 -8.9615363869878159e-09 0.0000000000000000e+00  7.5927792048273879e-04 -8.9615240410692576e-09 0.0000000000000000e+00  7.5927792048366080e-04 -8.9615454907081976e-09 0.0000000000000000e+00  7.5927792048947819e-04 -8.9615504579804509e-09 0.0000000000000000e+00  7.5927792047884011e-04 -8.9615469925450469e-09 0.0000000000000000e+00  7.5927792048602588e-04 1.6785895464379621e-09 0.0000000000000000e+00  9.7022087403644841e-04 -1.0371532607354392e-08 0.0000000000000000e+00  9.7022087406427098e-04 -1.0371540291745709e-08 0.0000000000000000e+00  9.7022087403029447e-04 -1.0371517057726834e-08 0.0000000000000000e+00  9.7022087405580293e-04 -1.0371515445084523e-08 0.0000000000000000e+00  9.7022087404146479e-04 -1.0371532606920711e-08 0.0000000000000000e+00  9.7022087404328452e-04 -1.0371548684771567e-08 0.0000000000000000e+00  9.7022087404043697e-04 -1.0371538508233136e-08 0.0000000000000000e+00  9.7022087404072992e-04 -1.0371539448453260e-08 0.0000000000000000e+00  9.7022087405134795e-04 -1.0371537681420559e-08 0.0000000000000000e+00  9.7022087403752805e-04 -1.0371566486070197e-08 0.0000000000000000e+00  9.7022087403913311e-04 -1.0371545012145128e-08 0.0000000000000000e+00  9.7022087400942315e-04 -1.0371512128293237e-08 0.0000000000000000e+00  9.7022087407001314e-04 -1.0371563205924944e-08 0.0000000000000000e+00  9.7022087402500986e-04 -1.0371546334438098e-08 0.0000000000000000e+00  9.7022087403818053e-04 -1.0371553044999024e-08 0.0000000000000000e+00  9.7022087403418676e-04 -1.0371565159874099e-08 0.0000000000000000e+00  9.7022087404286059e-04 -1.0371532622533222e-08 0.0000000000000000e+00  9.7022087403544899e-04 -1.0371548854774468e-08 0.0000000000000000e+00  9.7022087403262399e-04 -1.0371538604943970e-08 0.0000000000000000e+00  9.7022087406184693e-04 -1.0371529004333732e-08 0.0000000000000000e+00  9.7022087404247874e-04 -1.0371517523716928e-08 0.0000000000000000e+00  9.7022087404384093e-04 -1.0371511579253256e-08 0.0000000000000000e+00  9.7022087407880276e-04 -1.0371545888180483e-08 0.0000000000000000e+00  9.7022087402460198e-04 -1.0371556490810369e-08 0.0000000000000000e+00  9.7022087402181775e-04 -1.0371531840823456e-08 0.0000000000000000e+00  9.7022087405437200e-04 -1.0371536193244657e-08 0.0000000000000000e+00  9.7022087403648700e-04 -1.0371560562206367e-08 0.0000000000000000e+00  9.7022087403468354e-04 -1.0371527165526848e-08 0.0000000000000000e+00  9.7022087405454005e-04 -1.0371537404081643e-08 0.0000000000000000e+00  9.7022087403002559e-04 -1.0371539067247776e-08 0.0000000000000000e+00  9.7022087403644841e-04 2.0094197794991323e-09 0.0000000000000000e+00  1.0134039717828119e-03 -9.5974884233539226e-09 0.0000000000000000e+00  1.0134039717884795e-03 -9.5974283319906137e-09 0.0000000000000000e+00  1.0134039718161128e-03 -9.5974624592055566e-09 0.0000000000000000e+00  1.0134039717951751e-03 -9.5974705691462270e-09 0.0000000000000000e+00  1.0134039718063927e-03 -9.5974713882609683e-09 0.0000000000000000e+00  1.0134039717977904e-03 -9.5974401299533940e-09 0.0000000000000000e+00  1.0134039718004140e-03 -9.5974751102186062e-09 0.0000000000000000e+00  1.0134039717948826e-03 -9.5974818454993421e-09 0.0000000000000000e+00  1.0134039717935427e-03 -9.5974831442651246e-09 0.0000000000000000e+00  1.0134039717888087e-03 -9.5974634012688242e-09 0.0000000000000000e+00  1.0134039717903487e-03 -9.5974602921022542e-09 0.0000000000000000e+00  1.0134039717974029e-03 -9.5974665080501495e-09 0.0000000000000000e+00  1.0134039718125089e-03 -9.5974396598433320e-09 0.0000000000000000e+00  1.0134039717999404e-03 -9.5974696693668440e-09 0.0000000000000000e+00  1.0134039717996082e-03 -9.5974572437594260e-09 0.0000000000000000e+00  1.0134039717959124e-03 -9.5974536314146278e-09 0.0000000000000000e+00  1.0134039718070545e-03 -9.5974515564685101e-09 0.0000000000000000e+00  1.0134039717917486e-03 -9.5974659513123339e-09 0.0000000000000000e+00  1.0134039718176762e-03 -9.5974371384227597e-09 0.0000000000000000e+00  1.0134039718047061e-03 -9.5974653366781223e-09 0.0000000000000000e+00  1.0134039717915591e-03 -9.5974601278456251e-09 0.0000000000000000e+00  1.0134039718138097e-03 -9.5974623964302508e-09 0.0000000000000000e+00  1.0134039718011241e-03 -9.5974667382262707e-09 0.0000000000000000e+00  1.0134039717984583e-03 -9.5974530473549174e-09 0.0000000000000000e+00  1.0134039717806693e-03 -9.5974599879835448e-09 0.0000000000000000e+00  1.0134039717945229e-03 -9.5974636182176790e-09 0.0000000000000000e+00  1.0134039718079683e-03 -9.5974629805983813e-09 0.0000000000000000e+00  1.0134039718022389e-03 -9.5974538872863405e-09 0.0000000000000000e+00  1.0134039717840679e-03 -9.5974605955704423e-09 0.0000000000000000e+00  1.0134039718117179e-03 -9.5974501583898086e-09 0.0000000000000000e+00  1.0134039717828122e-03 1.8950703633012692e-09 0.0000000000000000e+00  8.8136041386240288e-04 -6.8662820649481246e-09 0.0000000000000000e+00  8.8136041385963111e-04 -6.8662799141078548e-09 0.0000000000000000e+00  8.8136041385875660e-04 -6.8662616167867313e-09 0.0000000000000000e+00  8.8136041386208867e-04 -6.8662780361612719e-09 0.0000000000000000e+00  8.8136041386584663e-04 -6.8662665953346871e-09 0.0000000000000000e+00  8.8136041384679535e-04 -6.8662851467927999e-09 0.0000000000000000e+00  8.8136041387104212e-04 -6.8662821152551054e-09 0.0000000000000000e+00  8.8136041385817503e-04 -6.8662915523676551e-09 0.0000000000000000e+00  8.8136041385383681e-04 -6.8663053062311546e-09 0.0000000000000000e+00  8.8136041384019159e-04 -6.8663100224021847e-09 0.0000000000000000e+00  8.8136041385226071e-04 -6.8662738944005527e-09 0.0000000000000000e+00  8.8136041386286258e-04 -6.8663045439286072e-09 0.0000000000000000e+00  8.8136041385277147e-04 -6.8662963127741339e-09 0.0000000000000000e+00  8.8136041384819007e-04 -6.8662902160884776e-09 0.0000000000000000e+00  8.8136041385594970e-04 -6.8662900782863814e-09 0.0000000000000000e+00  8.8136041385143812e-04 -6.8662890265018539e-09 0.0000000000000000e+00  8.8136041386797589e-04 -6.8662814430497585e-09 0.0000000000000000e+00  8.8136041384642998e-04 -6.8662692934802136e-09 0.0000000000000000e+00  8.8136041387753162e-04 -6.8662543736656978e-09 0.0000000000000000e+00  8.8136041387456697e-04 -6.8662786840804901e-09 0.0000000000000000e+00  8.8136041386353793e-04 -6.8662740770886188e-09 0.0000000000000000e+00  8.8136041385006032e-04 -6.8662948352234132e-09 0.0000000000000000e+00  8.8136041383723399e-04 -6.8662803290320262e-09 0.0000000000000000e+00  8.8136041386347494e-04 -6.8662705965828047e-09 0.0000000000000000e+00  8.8136041387082073e-04 -6.8662886030124853e-09 0.0000000000000000e+00  8.8136041383649565e-04 -6.8663078435894989e-09 0.0000000000000000e+00  8.8136041385762404e-04 -6.8662832608231208e-09 0.0000000000000000e+00  8.8136041387689747e-04 -6.8662888304781011e-09 0.0000000000000000e+00  8.8136041384990615e-04 -6.8663014436524950e-09 0.0000000000000000e+00  8.8136041384516178e-04 -6.8662899698661642e-09 0.0000000000000000e+00  8.8136041386240331e-04 1.3378819287966134e-09 0.0000000000000000e+00  5.9692159637570645e-04 -2.9992758684635468e-09 0.0000000000000000e+00  5.9692159635942672e-04 -2.9992693170092892e-09 0.0000000000000000e+00  5.9692159636445157e-04 -2.9992648058066798e-09 0.0000000000000000e+00  5.9692159637471159e-04 -2.9992505462712871e-09 0.0000000000000000e+00  5.9692159638269544e-04 -2.9992455911420982e-09 0.0000000000000000e+00  5.9692159635697838e-04 -2.9992358821116435e-09 0.0000000000000000e+00  5.9692159636100424e-04 -2.9992536497457957e-09 0.0000000000000000e+00  5.9692159636864765e-04 -2.9992423347408731e-09 0.0000000000000000e+00  5.9692159636860927e-04 -2.9992373692575534e-09 0.0000000000000000e+00  5.9692159637736680e-04 -2.9992273116018903e-09 0.0000000000000000e+00  5.9692159636973445e-04 -2.9992661836650107e-09 0.0000000000000000e+00  5.9692159636226983e-04 -2.9992365065036747e-09 0.0000000000000000e+00  5.9692159637527147e-04 -2.9992382951119986e-09 0.0000000000000000e+00  5.9692159636547267e-04 -2.9992341455992340e-09 0.0000000000000000e+00  5.9692159636522894e-04 -2.9992295771507499e-09 0.0000000000000000e+00  5.9692159637856734e-04 -2.9992269764749988e-09 0.0000000000000000e+00  5.9692159637712437e-04 -2.9992339054484528e-09 0.0000000000000000e+00  5.9692159636715568e-04 -2.9992632621196266e-09 0.0000000000000000e+00  5.9692159637145215e-04 -2.9992761694380699e-09 0.0000000000000000e+00  5.9692159637281554e-04 -2.9992419695815814e-09 0.0000000000000000e+00  5.9692159637056809e-04 -2.9992593845789770e-09 0.0000000000000000e+00  5.9692159637018646e-04 -2.9992453327767205e-09 0.0000000000000000e+00  5.9692159636961237e-04 -2.9992377048723359e-09 0.0000000000000000e+00  5.9692159636583122e-04 -2.9992517656734705e-09 0.0000000000000000e+00  5.9692159636803659e-04 -2.9992504843091329e-09 0.0000000000000000e+00  5.9692159636136051e-04 -2.9992272490434249e-09 0.0000000000000000e+00  5.9692159638781461e-04 -2.9992292562811169e-09 0.0000000000000000e+00  5.9692159637126079e-04 -2.9992592213523399e-09 0.0000000000000000e+00  5.9692159637248030e-04 -2.9992541025086229e-09 0.0000000000000000e+00  5.9692159635316134e-04 -2.9992396975817188e-09 0.0000000000000000e+00  5.9692159637570667e-04 5.1230014123043569e-10 0.0000000000000000e+00  2.0926944430878417e-04 9.6109319194261338e-10 0.0000000000000000e+00  2.0926944430769712e-04 9.6106427454950225e-10 0.0000000000000000e+00  2.0926944429577190e-04 9.6107726460612376e-10 0.0000000000000000e+00  2.0926944432570643e-04 9.6108246097029604e-10 0.0000000000000000e+00  2.0926944430404987e-04 9.6106761101905774e-10 0.0000000000000000e+00  2.0926944429942233e-04 9.6109386607241918e-10 0.0000000000000000e+00  2.0926944431197246e-04 9.6108256161136271e-10 0.0000000000000000e+00  2.0926944429949871e-04 9.6106964601232539e-10 0.0000000000000000e+00  2.0926944430970249e-04 9.6108111912102979e-10 0.0000000000000000e+00  2.0926944430342851e-04 9.6106895499607076e-10 0.0000000000000000e+00  2.0926944428839328e-04 9.6106758894199101e-10 0.0000000000000000e+00  2.0926944430595774e-04 9.6104154548423606e-10 0.0000000000000000e+00  2.0926944428937996e-04 9.6102713886326609e-10 0.0000000000000000e+00  2.0926944430284261e-04 9.6105439155880906e-10 0.0000000000000000e+00  2.0926944429162285e-04 9.6103877563228843e-10 0.0000000000000000e+00  2.0926944430338569e-04 9.6104316110810339e-10 0.0000000000000000e+00  2.0926944430251762e-04 9.6105360327606703e-10 0.0000000000000000e+00  2.0926944430832748e-04 9.6104471281825265e-10 0.0000000000000000e+00  2.0926944429871115e-04 9.6106557530750616e-10 0.0000000000000000e+00  2.0926944430901177e-04 9.6108148528320850e-10 0.0000000000000000e+00  2.0926944430241365e-04 9.6107822054717924e-10 0.0000000000000000e+00  2.0926944430719481e-04 9.6104838926650438e-10 0.0000000000000000e+00  2.0926944430813943e-04 9.6106892496367058e-10 0.0000000000000000e+00  2.0926944429064637e-04 9.6103703430873173e-10 0.0000000000000000e+00  2.0926944429883843e-04 9.6108090908396393e-10 0.0000000000000000e+00  2.0926944432204340e-04 9.6107156777422865e-10 0.0000000000000000e+00  2.0926944429482334e-04 9.6106893599542768e-10 0.0000000000000000e+00  2.0926944430405047e-04 9.6106737151879784e-10 0.0000000000000000e+00  2.0926944430911616e-04 9.6105452385857916e-10 0.0000000000000000e+00  2.0926944428658812e-04 9.6106559689668192e-10 0.0000000000000000e+00  2.0926944430878420e-04 -3.1840167785818372e-10 0.0000000000000000e+00  -2.1456750326757365e-04 4.1779446985899284e-09 0.0000000000000000e+00  -2.1456750329416051e-04 4.1779480334331806e-09 0.0000000000000000e+00  -2.1456750326453430e-04 4.1779899071100156e-09 0.0000000000000000e+00  -2.1456750326239208e-04 4.1779605250685109e-09 0.0000000000000000e+00  -2.1456750326264400e-04 4.1779376518179083e-09 0.0000000000000000e+00  -2.1456750326899666e-04 4.1779609455221134e-09 0.0000000000000000e+00  -2.1456750327236517e-04 4.1779401501991845e-09 0.0000000000000000e+00  -2.1456750328234660e-04 4.1779387070718828e-09 0.0000000000000000e+00  -2.1456750327023921e-04 4.1779446916510345e-09 0.0000000000000000e+00  -2.1456750326692659e-04 4.1779559578126492e-09 0.0000000000000000e+00  -2.1456750327263427e-04 4.1779485542839043e-09 0.0000000000000000e+00  -2.1456750327519580e-04 4.1779735551186400e-09 0.0000000000000000e+00  -2.1456750325189787e-04 4.1779569672590819e-09 0.0000000000000000e+00  -2.1456750328742110e-04 4.1779674944827060e-09 0.0000000000000000e+00  -2.1456750327348618e-04 4.1779716083794292e-09 0.0000000000000000e+00  -2.1456750326634503e-04 4.1779571595965473e-09 0.0000000000000000e+00  -2.1456750326042062e-04 4.1779761392603081e-09 0.0000000000000000e+00  -2.1456750326343270e-04 4.1779552566591042e-09 0.0000000000000000e+00  -2.1456750326475662e-04 4.1779366932747676e-09 0.0000000000000000e+00  -2.1456750328006691e-04 4.1779578253508913e-09 0.0000000000000000e+00  -2.1456750326313297e-04 4.1779632095530900e-09 0.0000000000000000e+00  -2.1456750326905174e-04 4.1779471585904476e-09 0.0000000000000000e+00  -2.1456750328899076e-04 4.1779373704132344e-09 0.0000000000000000e+00  -2.1456750326705843e-04 4.1779699867382399e-09 0.0000000000000000e+00  -2.1456750327998033e-04 4.1779300787199436e-09 0.0000000000000000e+00  -2.1456750327343137e-04 4.1779525738008284e-09 0.0000000000000000e+00  -2.1456750325726375e-04 4.1779549077628451e-09 0.0000000000000000e+00  -2.1456750327822582e-04 4.1779588710638867e-09 0.0000000000000000e+00  -2.1456750326390324e-04 4.1779508080691703e-09 0.0000000000000000e+00  -2.1456750325200710e-04 4.1779571135721651e-09 0.0000000000000000e+00  -2.1456750326757381e-04 -9.2602805785940536e-10 0.0000000000000000e+00  -6.0130390949045417e-04 6.2653981664287373e-09 0.0000000000000000e+00  -6.0130390950319961e-04 6.2653892138461384e-09 0.0