<?xml version="1.0"?>
<VTKFile type="UnstructuredGrid"  version="0.1"  >
<UnstructuredGrid>
<Piece  NumberOfPoints="961" NumberOfCells="1800">
<Points>
<DataArray  type="Float64"  NumberOfComponents="3"  format="ascii">0 0 0  0.03333333333333333 0 0  0.06666666666666667 0 0  0.1 0 0  0.1333333333333333 0 0  0.1666666666666667 0 0  0.2 0 0  0.2333333333333333 0 0  0.2666666666666667 0 0  0.3 0 0  0.3333333333333333 0 0  0.3666666666666666 0 0  0.4 0 0  0.4333333333333333 0 0  0.4666666666666667 0 0  0.5 0 0  0.5333333333333333 0 0  0.5666666666666667 0 0  0.6 0 0  0.6333333333333333 0 0  0.6666666666666666 0 0  0.7 0 0  0.7333333333333333 0 0  0.7666666666666667 0 0  0.8 0 0  0.8333333333333334 0 0  0.8666666666666667 0 0  0.9 0 0  0.9333333333333333 0 0  0.9666666666666667 0 0  1 0 0  0 0.03333333333333333 0  0.03333333333333333 0.03333333333333333 0  0.06666666666666667 0.03333333333333333 0  0.1 0.03333333333333333 0  0.1333333333333333 0.03333333333333333 0  0.1666666666666667 0.03333333333333333 0  0.2 0.03333333333333333 0  0.2333333333333333 0.03333333333333333 0  0.2666666666666667 0.03333333333333333 0  0.3 0.03333333333333333 0  0.3333333333333333 0.03333333333333333 0  0.3666666666666666 0.03333333333333333 0  0.4 0.03333333333333333 0  0.4333333333333333 0.03333333333333333 0  0.4666666666666667 0.03333333333333333 0  0.5 0.03333333333333333 0  0.5333333333333333 0.03333333333333333 0  0.5666666666666667 0.03333333333333333 0  0.6 0.03333333333333333 0  0.6333333333333333 0.03333333333333333 0  0.6666666666666666 0.03333333333333333 0  0.7 0.03333333333333333 0  0.7333333333333333 0.03333333333333333 0  0.7666666666666667 0.03333333333333333 0  0.8 0.03333333333333333 0  0.8333333333333334 0.03333333333333333 0  0.8666666666666667 0.03333333333333333 0  0.9 0.03333333333333333 0  0.9333333333333333 0.03333333333333333 0  0.9666666666666667 0.03333333333333333 0  1 0.03333333333333333 0  0 0.06666666666666667 0  0.03333333333333333 0.06666666666666667 0  0.06666666666666667 0.06666666666666667 0  0.1 0.06666666666666667 0  0.1333333333333333 0.06666666666666667 0  0.1666666666666667 0.06666666666666667 0  0.2 0.06666666666666667 0  0.2333333333333333 0.06666666666666667 0  0.2666666666666667 0.06666666666666667 0  0.3 0.06666666666666667 0  0.3333333333333333 0.06666666666666667 0  0.3666666666666666 0.06666666666666667 0  0.4 0.06666666666666667 0  0.4333333333333333 0.06666666666666667 0  0.4666666666666667 0.06666666666666667 0  0.5 0.06666666666666667 0  0.5333333333333333 0.06666666666666667 0  0.5666666666666667 0.06666666666666667 0  0.6 0.06666666666666667 0  0.6333333333333333 0.06666666666666667 0  0.6666666666666666 0.06666666666666667 0  0.7 0.06666666666666667 0  0.7333333333333333 0.06666666666666667 0  0.7666666666666667 0.06666666666666667 0  0.8 0.06666666666666667 0  0.8333333333333334 0.06666666666666667 0  0.8666666666666667 0.06666666666666667 0  0.9 0.06666666666666667 0  0.9333333333333333 0.06666666666666667 0  0.9666666666666667 0.06666666666666667 0  1 0.06666666666666667 0  0 0.1 0  0.03333333333333333 0.1 0  0.06666666666666667 0.1 0  0.1 0.1 0  0.1333333333333333 0.1 0  0.1666666666666667 0.1 0  0.2 0.1 0  0.2333333333333333 0.1 0  0.2666666666666667 0.1 0  0.3 0.1 0  0.3333333333333333 0.1 0  0.3666666666666666 0.1 0  0.4 0.1 0  0.4333333333333333 0.1 0  0.4666666666666667 0.1 0  0.5 0.1 0  0.5333333333333333 0.1 0  0.5666666666666667 0.1 0  0.6 0.1 0  0.6333333333333333 0.1 0  0.6666666666666666 0.1 0  0.7 0.1 0  0.7333333333333333 0.1 0  0.7666666666666667 0.1 0  0.8 0.1 0  0.8333333333333334 0.1 0  0.8666666666666667 0.1 0  0.9 0.1 0  0.9333333333333333 0.1 0  0.9666666666666667 0.1 0  1 0.1 0  0 0.1333333333333333 0  0.03333333333333333 0.1333333333333333 0  0.06666666666666667 0.1333333333333333 0  0.1 0.1333333333333333 0  0.1333333333333333 0.1333333333333333 0  0.1666666666666667 0.1333333333333333 0  0.2 0.1333333333333333 0  0.2333333333333333 0.1333333333333333 0  0.2666666666666667 0.1333333333333333 0  0.3 0.1333333333333333 0  0.3333333333333333 0.1333333333333333 0  0.3666666666666666 0.1333333333333333 0  0.4 0.1333333333333333 0  0.4333333333333333 0.1333333333333333 0  0.4666666666666667 0.1333333333333333 0  0.5 0.1333333333333333 0  0.5333333333333333 0.1333333333333333 0  0.5666666666666667 0.1333333333333333 0  0.6 0.1333333333333333 0  0.6333333333333333 0.1333333333333333 0  0.6666666666666666 0.1333333333333333 0  0.7 0.1333333333333333 0  0.7333333333333333 0.1333333333333333 0  0.7666666666666667 0.1333333333333333 0  0.8 0.1333333333333333 0  0.8333333333333334 0.1333333333333333 0  0.8666666666666667 0.1333333333333333 0  0.9 0.1333333333333333 0  0.9333333333333333 0.1333333333333333 0  0.9666666666666667 0.1333333333333333 0  1 0.1333333333333333 0  0 0.1666666666666667 0  0.03333333333333333 0.1666666666666667 0  0.06666666666666667 0.1666666666666667 0  0.1 0.1666666666666667 0  0.1333333333333333 0.1666666666666667 0  0.1666666666666667 0.1666666666666667 0  0.2 0.1666666666666667 0  0.2333333333333333 0.1666666666666667 0  0.2666666666666667 0.1666666666666667 0  0.3 0.1666666666666667 0  0.3333333333333333 0.1666666666666667 0  0.3666666666666666 0.1666666666666667 0  0.4 0.1666666666666667 0  0.4333333333333333 0.1666666666666667 0  0.4666666666666667 0.1666666666666667 0  0.5 0.1666666666666667 0  0.5333333333333333 0.1666666666666667 0  0.5666666666666667 0.1666666666666667 0  0.6 0.1666666666666667 0  0.6333333333333333 0.1666666666666667 0  0.6666666666666666 0.1666666666666667 0  0.7 0.1666666666666667 0  0.7333333333333333 0.1666666666666667 0  0.7666666666666667 0.1666666666666667 0  0.8 0.1666666666666667 0  0.8333333333333334 0.1666666666666667 0  0.8666666666666667 0.1666666666666667 0  0.9 0.1666666666666667 0  0.9333333333333333 0.1666666666666667 0  0.9666666666666667 0.1666666666666667 0  1 0.1666666666666667 0  0 0.2 0  0.03333333333333333 0.2 0  0.06666666666666667 0.2 0  0.1 0.2 0  0.1333333333333333 0.2 0  0.1666666666666667 0.2 0  0.2 0.2 0  0.2333333333333333 0.2 0  0.2666666666666667 0.2 0  0.3 0.2 0  0.3333333333333333 0.2 0  0.3666666666666666 0.2 0  0.4 0.2 0  0.4333333333333333 0.2 0  0.4666666666666667 0.2 0  0.5 0.2 0  0.5333333333333333 0.2 0  0.5666666666666667 0.2 0  0.6 0.2 0  0.6333333333333333 0.2 0  0.6666666666666666 0.2 0  0.7 0.2 0  0.7333333333333333 0.2 0  0.7666666666666667 0.2 0  0.8 0.2 0  0.8333333333333334 0.2 0  0.8666666666666667 0.2 0  0.9 0.2 0  0.9333333333333333 0.2 0  0.9666666666666667 0.2 0  1 0.2 0  0 0.2333333333333333 0  0.03333333333333333 0.2333333333333333 0  0.06666666666666667 0.2333333333333333 0  0.1 0.2333333333333333 0  0.1333333333333333 0.2333333333333333 0  0.1666666666666667 0.2333333333333333 0  0.2 0.2333333333333333 0  0.2333333333333333 0.2333333333333333 0  0.2666666666666667 0.2333333333333333 0  0.3 0.2333333333333333 0  0.3333333333333333 0.2333333333333333 0  0.3666666666666666 0.2333333333333333 0  0.4 0.2333333333333333 0  0.4333333333333333 0.2333333333333333 0  0.4666666666666667 0.2333333333333333 0  0.5 0.2333333333333333 0  0.5333333333333333 0.2333333333333333 0  0.5666666666666667 0.2333333333333333 0  0.6 0.2333333333333333 0  0.6333333333333333 0.2333333333333333 0  0.6666666666666666 0.2333333333333333 0  0.7 0.2333333333333333 0  0.7333333333333333 0.2333333333333333 0  0.7666666666666667 0.2333333333333333 0  0.8 0.2333333333333333 0  0.8333333333333334 0.2333333333333333 0  0.8666666666666667 0.2333333333333333 0  0.9 0.2333333333333333 0  0.9333333333333333 0.2333333333333333 0  0.9666666666666667 0.2333333333333333 0  1 0.2333333333333333 0  0 0.2666666666666667 0  0.03333333333333333 0.2666666666666667 0  0.06666666666666667 0.2666666666666667 0  0.1 0.2666666666666667 0  0.1333333333333333 0.2666666666666667 0  0.1666666666666667 0.2666666666666667 0  0.2 0.2666666666666667 0  0.2333333333333333 0.2666666666666667 0  0.2666666666666667 0.2666666666666667 0  0.3 0.2666666666666667 0  0.3333333333333333 0.2666666666666667 0  0.3666666666666666 0.2666666666666667 0  0.4 0.2666666666666667 0  0.4333333333333333 0.2666666666666667 0  0.4666666666666667 0.2666666666666667 0  0.5 0.2666666666666667 0  0.5333333333333333 0.2666666666666667 0  0.5666666666666667 0.2666666666666667 0  0.6 0.2666666666666667 0  0.6333333333333333 0.2666666666666667 0  0.6666666666666666 0.2666666666666667 0  0.7 0.2666666666666667 0  0.7333333333333333 0.2666666666666667 0  0.7666666666666667 0.2666666666666667 0  0.8 0.2666666666666667 0  0.8333333333333334 0.2666666666666667 0  0.8666666666666667 0.2666666666666667 0  0.9 0.2666666666666667 0  0.9333333333333333 0.2666666666666667 0  0.9666666666666667 0.2666666666666667 0  1 0.2666666666666667 0  0 0.3 0  0.03333333333333333 0.3 0  0.06666666666666667 0.3 0  0.1 0.3 0  0.1333333333333333 0.3 0  0.1666666666666667 0.3 0  0.2 0.3 0  0.2333333333333333 0.3 0  0.2666666666666667 0.3 0  0.3 0.3 0  0.3333333333333333 0.3 0  0.3666666666666666 0.3 0  0.4 0.3 0  0.4333333333333333 0.3 0  0.4666666666666667 0.3 0  0.5 0.3 0  0.5333333333333333 0.3 0  0.5666666666666667 0.3 0  0.6 0.3 0  0.6333333333333333 0.3 0  0.6666666666666666 0.3 0  0.7 0.3 0  0.7333333333333333 0.3 0  0.7666666666666667 0.3 0  0.8 0.3 0  0.8333333333333334 0.3 0  0.8666666666666667 0.3 0  0.9 0.3 0  0.9333333333333333 0.3 0  0.9666666666666667 0.3 0  1 0.3 0  0 0.3333333333333333 0  0.03333333333333333 0.3333333333333333 0  0.06666666666666667 0.3333333333333333 0  0.1 0.3333333333333333 0  0.1333333333333333 0.3333333333333333 0  0.1666666666666667 0.3333333333333333 0  0.2 0.3333333333333333 0  0.2333333333333333 0.3333333333333333 0  0.2666666666666667 0.3333333333333333 0  0.3 0.3333333333333333 0  0.3333333333333333 0.3333333333333333 0  0.3666666666666666 0.3333333333333333 0  0.4 0.3333333333333333 0  0.4333333333333333 0.3333333333333333 0  0.4666666666666667 0.3333333333333333 0  0.5 0.3333333333333333 0  0.5333333333333333 0.33333333333333
[...]
<PointData  Scalars="q_f"> 
<DataArray  type="Float64"  Name="q_f"  format="ascii">9.9873977897069699e-01  9.9873977897076160e-01  9.9873977897073507e-01  9.9873977897072286e-01  9.9873977897075472e-01  9.9873977897087518e-01  9.9873977897074573e-01  9.9873977897079613e-01  9.9873977897072685e-01  9.9873977897082411e-01  9.9873977897085708e-01  9.9873977897085764e-01  9.9873977897293220e-01  9.9873977897096378e-01  9.9873977897064437e-01  9.9873977897082522e-01  9.9873977897070942e-01  9.9873977897070276e-01  9.9873977897071864e-01  9.9873977897069699e-01  9.9873977897074051e-01  9.9873977897077448e-01  9.9873977897059607e-01  9.9873977896850796e-01  9.9873977897058186e-01  9.9873977897066268e-01  9.9873977897072375e-01  9.9873977897054422e-01  9.9873977897075605e-01  9.9873977897063748e-01  9.9873977897069699e-01  9.9884873011967512e-01  9.9884873011977782e-01  9.9884873011968844e-01  9.9884873011972952e-01  9.9884873011951159e-01  9.9884873011969944e-01  9.9884873011961928e-01  9.9884873011968911e-01  9.9884873011968633e-01  9.9884873011964392e-01  9.9884873011986253e-01  9.9884873012180642e-01  9.9884873012171493e-01  9.9884873011972397e-01  9.9884873011964315e-01  9.9884873011965114e-01  9.9884873011961794e-01  9.9884873011966391e-01  9.9884873011971498e-01  9.9884873011960462e-01  9.9884873011955100e-01  9.9884873011948705e-01  9.9884873011748054e-01  9.9884873011752007e-01  9.9884873011963538e-01  9.9884873011971775e-01  9.9884873011968012e-01  9.9884873011962139e-01  9.9884873011963093e-01  9.9884873011958641e-01  9.9884873011967512e-01  9.9915674567064661e-01  9.9915674567058055e-01  9.9915674567067447e-01  9.9915674567069612e-01  9.9915674567078083e-01  9.9915674567081469e-01  9.9915674567062007e-01  9.9915674567058799e-01  9.9915674567074897e-01  9.9915674567076151e-01  9.9915674567070589e-01  9.9915674567316670e-01  9.9915674567258794e-01  9.9915674567078427e-01  9.9915674567071011e-01  9.9915674567054502e-01  9.9915674567067048e-01  9.9915674567077739e-01  9.9915674567068313e-01  9.9915674567062818e-01  9.9915674567055468e-01  9.9915674567059232e-01  9.9915674566825974e-01  9.9915674566879509e-01  9.9915674567054136e-01  9.9915674567069790e-01  9.9915674567075841e-01  9.9915674567075707e-01  9.9915674567075663e-01  9.9915674567064361e-01  9.9915674567064661e-01  9.9961056866600628e-01  9.9961056866592590e-01  9.9961056866597875e-01  9.9961056866585929e-01  9.9961056866599396e-01  9.9961056866598508e-01  9.9961056866582110e-01  9.9961056866588893e-01  9.9961056866590148e-01  9.9961056866591047e-01  9.9961056866599729e-01  9.9961056866813081e-01  9.9961056866572706e-01  9.9961056866596176e-01  9.9961056866599318e-01  9.9961056866579845e-01  9.9961056866596221e-01  9.9961056866604170e-01  9.9961056866584408e-01  9.9961056866589337e-01  9.9961056866586073e-01  9.9961056866564602e-01  9.9961056866373077e-01  9.9961056866604858e-01  9.9961056866581643e-01  9.9961056866587106e-01  9.9961056866597120e-01  9.9961056866590270e-01  9.9961056866593212e-01  9.9961056866606457e-01  9.9961056866600628e-01  1.0001317305204476e+00  1.0001317305204473e+00  1.0001317305204294e+00  1.0001317305203192e+00  1.0001317305203186e+00  1.0001317305203736e+00  1.0001317305203423e+00  1.0001317305204158e+00  1.0001317305202972e+00  1.0001317305203654e+00  1.0001317305204604e+00  1.0001317305204172e+00  1.0001317305203636e+00  1.0001317305204085e+00  1.0001317305203246e+00  1.0001317305202173e+00  1.0001317305204411e+00  1.0001317305204276e+00  1.0001317305203181e+00  1.0001317305204105e+00  1.0001317305202890e+00  1.0001317305202733e+00  1.0001317305202528e+00  1.0001317305204562e+00  1.0001317305201909e+00  1.0001317305204467e+00  1.0001317305203394e+00  1.0001317305203390e+00  1.0001317305203317e+00  1.0001317305204012e+00  1.0001317305204476e+00  1.0006301179391401e+00  1.0006301179391437e+00  1.0006301179392125e+00  1.0006301179391757e+00  1.0006301179391675e+00  1.0006301179391976e+00  1.0006301179391954e+00  1.0006301179390493e+00  1.0006301179391992e+00  1.0006301179391948e+00  1.0006301179391086e+00  1.0006301179391830e+00  1.0006301179392891e+00  1.0006301179391066e+00  1.0006301179391472e+00  1.0006301179391586e+00  1.0006301179391324e+00  1.0006301179391828e+00  1.0006301179392187e+00  1.0006301179390531e+00  1.0006301179391819e+00  1.0006301179391410e+00  1.0006301179392929e+00  1.0006301179390604e+00  1.0006301179391133e+00  1.0006301179391417e+00  1.0006301179391484e+00  1.0006301179390955e+00  1.0006301179390551e+00  1.0006301179391219e+00  1.0006301179391401e+00  1.0010195541409150e+00  1.0010195541409410e+00  1.0010195541409694e+00  1.0010195541408906e+00  1.0010195541409930e+00  1.0010195541410325e+00  1.0010195541410314e+00  1.0010195541410423e+00  1.0010195541408493e+00  1.0010195541409372e+00  1.0010195541410418e+00  1.0010195541410920e+00  1.0010195541408773e+00  1.0010195541410603e+00  1.0010195541410227e+00  1.0010195541408489e+00  1.0010195541409588e+00  1.0010195541409228e+00  1.0010195541408686e+00  1.0010195541409843e+00  1.0010195541408524e+00  1.0010195541409865e+00  1.0010195541409521e+00  1.0010195541408364e+00  1.0010195541410014e+00  1.0010195541409599e+00  1.0010195541410394e+00  1.0010195541410414e+00  1.0010195541410187e+00  1.0010195541409923e+00  1.0010195541409150e+00  1.0012327003346380e+00  1.0012327003345285e+00  1.0012327003346644e+00  1.0012327003346908e+00  1.0012327003346688e+00  1.0012327003346462e+00  1.0012327003346928e+00  1.0012327003345689e+00  1.0012327003346608e+00  1.0012327003345858e+00  1.0012327003346884e+00  1.0012327003347321e+00  1.0012327003346251e+00  1.0012327003346992e+00  1.0012327003344872e+00  1.0012327003345931e+00  1.0012327003344883e+00  1.0012327003344561e+00  1.0012327003345600e+00  1.0012327003344295e+00  1.0012327003346333e+00  1.0012327003346504e+00  1.0012327003346855e+00  1.0012327003346639e+00  1.0012327003345818e+00  1.0012327003345591e+00  1.0012327003345447e+00  1.0012327003346866e+00  1.0012327003346053e+00  1.0012327003348054e+00  1.0012327003346380e+00  1.0012327003348065e+00  1.0012327003347814e+00  1.0012327003347030e+00  1.0012327003346753e+00  1.0012327003345760e+00  1.0012327003348489e+00  1.0012327003349195e+00  1.0012327003348322e+00  1.0012327003347992e+00  1.0012327003346742e+00  1.0012327003347918e+00  1.0012327003347881e+00  1.0012327003345676e+00  1.0012327003346497e+00  1.0012327003347798e+00  1.0012327003347099e+00  1.0012327003346078e+00  1.0012327003346533e+00  1.0012327003347177e+00  1.0012327003347665e+00  1.0012327003346473e+00  1.0012327003349288e+00  1.0012327003349069e+00  1.0012327003347712e+00  1.0012327003347639e+00  1.0012327003347343e+00  1.0012327003347887e+00  1.0012327003347861e+00  1.0012327003347345e+00  1.0012327003347095e+00  1.0012327003348065e+00  1.0010195541411948e+00  1.0010195541412237e+00  1.0010195541409490e+00  1.0010195541411093e+00  1.0010195541411120e+00  1.0010195541409714e+00  1.0010195541411575e+00  1.0010195541410696e+00  1.0010195541412037e+00  1.0010195541410967e+00  1.0010195541410885e+00  1.0010195541410067e+00  1.0010195541412172e+00  1.0010195541411278e+00  1.0010195541412232e+00  1.0010195541410984e+00  1.0010195541410731e+00  1.0010195541411346e+00  1.0010195541410227e+00  1.0010195541410680e+00  1.0010195541412157e+00  1.0010195541411278e+00  1.0010195541410254e+00  1.0010195541411102e+00  1.0010195541411615e+00  1.0010195541411138e+00  1.0010195541410953e+00  1.0010195541410689e+00  1.0010195541410909e+00  1.0010195541412616e+00  1.0010195541411948e+00  1.0006301179389472e+00  1.0006301179387926e+00  1.0006301179389767e+00  1.0006301179387647e+00  1.0006301179389550e+00  1.0006301179389754e+00  1.0006301179392301e+00  1.0006301179391588e+00  1.0006301179390824e+00  1.0006301179389852e+00  1.0006301179391206e+00  1.0006301179391326e+00  1.0006301179390955e+00  1.0006301179390331e+00  1.0006301179391663e+00  1.0006301179391162e+00  1.0006301179390138e+00  1.0006301179391552e+00  1.0006301179391872e+00  1.0006301179391490e+00  1.0006301179390016e+00  1.0006301179389083e+00  1.0006301179391288e+00  1.0006301179390866e+00  1.0006301179391039e+00  1.0006301179392065e+00  1.0006301179389470e+00  1.0006301179390764e+00  1.0006301179390678e+00  1.0006301179389727e+00  1.0006301179389472e+00  1.0001317305203570e+00  1.0001317305184387e+00  1.0001317305180988e+00  1.0001317305182138e+00  1.0001317305204620e+00  1.0001317305206037e+00  1.0001317305206532e+00  1.0001317305205850e+00  1.0001317305207960e+00  1.0001317305205790e+00  1.0001317305206252e+00  1.0001317305204560e+00  1.0001317305204878e+00  1.0001317305205093e+00  1.0001317305205248e+00  1.0001317305205868e+00  1.0001317305205906e+00  1.0001317305206712e+00  1.0001317305206627e+00  1.0001317305205140e+00  1.0001317305205248e+00  1.0001317305206128e+00  1.0001317305206376e+00  1.0001317305206068e+00  1.0001317305207023e+00  1.0001317305205368e+00  1.0001317305205788e+00  1.0001317305205473e+00  1.0001317305205173e+00  1.0001317305207220e+00  1.0001317305203570e+00  9.9961056866375519e-01  9.9961056866368214e-01  9.9961056866385822e-01  9.9961056866615428e-01  9.9961056866587572e-01  9.9961056866592524e-01  9.9961056866578302e-01  9.9961056866582676e-01  9.9961056866583964e-01  9.9961056866596176e-01  9.9961056866579590e-01  9.9961056866593934e-01  9.9961056866581954e-01  9.9961056866591003e-01  9.9961056866580889e-01  9.9961056866585229e-01  9.9961056866589360e-01  9.9961056866580056e-01  9.9961056866580922e-01  9.9961056866599318e-01  9.9961056866586107e-01  9.9961056866586162e-01  9.9961056866582210e-01  9.9961056866587894e-01  9.9961056866579756e-01  9.9961056866588915e-01  9.9961056866584963e-01  9.9961056866582698e-01  9.9961056866589348e-01  9.9961056866575559e-01  9.9961056866375519e-01  9.9915674567042623e-01  9.9915674567060442e-01  9.9915674567061963e-01  9.9915674567074642e-01  9.9915674567058155e-01  9.9915674567069834e-01  9.9915674567081270e-01  9.9915674567065604e-01  9.9915674567054136e-01  9.9915674567073987e-01  9.9915674567075408e-01  9.9915674567076773e-01  9.9915674567072943e-01  9.9915674567079937e-01  9.9915674567075219e-01  9.9915674567072010e-01  9.9915674567066781e-01  9.9915674567084123e-01  9.9915674567070467e-01  9.9915674567072987e-01  9.9915674567081003e-01  9.9915674567064283e-01  9.9915674567086088e-01  9.9915674567080892e-01  9.9915674567083812e-01  9.9915674567068502e-01  9.9915674567077650e-01  9.9915674567069901e-01  9.9915674567067758e-01  9.9915674567075385e-01  9.9915674567042623e-01  9.9884873011964603e-01  9.9884873011960906e-01  9.9884873011967934e-01  9.9884873011952202e-01  9.9884873011967856e-01  9.9884873011968811e-01  9.9884873011962361e-01  9.9884873011959074e-01  9.9884873011967812e-01  9.9884873011968867e-01  9.9884873011960362e-01  9.9884873011970821e-01  9.9884873011952025e-01  9.9884873011971487e-01  9.9884873011952235e-01  9.9884873011965469e-01  9.9884873011954856e-01  9.9884873011965258e-01  9.9884873011941899e-01  9.9884873011970976e-01  9.9884873011950193e-01  9.9884873011957986e-01  9.9884873011964592e-01  9.9884873011951336e-01  9.9884873011958053e-01  9.9884873011964748e-01  9.9884873011955300e-01  9.9884873011954767e-01  9.9884873011961628e-01  9.9884873011954478e-01  9.9884873011964603e-01  9.9873977897078692e-01  9.9873977897083344e-01  9.9873977897072264e-01  9.9873977897072186e-01  9.9873977897072530e-01  9.9873977897077360e-01  9.9873977897076860e-01  9.9873977897073429e-01  9.9873977897078814e-01  9.9873977897075383e-01  9.9873977897073629e-01  9.9873977897075972e-01  9.9873977897076072e-01  9.9873977897071531e-01  9.9873977897069366e-01  9.9873977897075528e-01  9.9873977897070187e-01  9.9873977897075705e-01  9.9873977897071842e-01  9.9873977897062127e-01  9.9873977897072008e-01  9.9873977897081401e-01  9.9873977897059318e-01  9.9873977897081934e-01  9.9873977897068877e-01  9.9873977897080457e-01  9.9873977897073751e-01  9.9873977897079558e-01  9.9873977897066257e-01  9.9873977897068067e-01  9.9873977897078692e-01  9.9884873011967990e-01  9.9884873011974751e-01  9.9884873011958919e-01  9.9884873011959285e-01  9.9884873011963171e-01  9.9884873011972375e-01  9.9884873011959030e-01  9.9884873011961728e-01  9.9884873011953312e-01  9.9884873011954856e-01  9.9884873011959086e-01  9.9884873011955388e-01  9.9884873011956832e-01  9.9884873011963560e-01  9.9884873011952324e-01  9.9884873011965780e-01  9.9884873011956132e-01  9.9884873011965314e-01  9.9884873011942910e-01  9.9884873011952335e-01  9.9884873011958775e-01  9.9884873011964159e-01  9.9884873011974384e-01  9.9884873011951825e-01  9.9884873011956909e-01  9.9884873011970776e-01  9.9884873011943009e-01  9.9884873011949837e-01  9.9884873011954034e-01  9.9884873011959308e-01  9.9884873011967990e-01  9.9915674567071600e-01  9.9915674567067470e-01  9.9915674567088286e-01  9.9915674567076129e-01  9.9915674567069945e-01  9.9915674567063617e-01  9.9915674567076840e-01  9.9915674567071544e-01  9.9915674567082879e-01  9.9915674567071955e-01  9.9915674567067270e-01  9.9915674567085144e-01  9.9915674567074919e-01  9.9915674567073109e-01  9.9915674567070645e-01  9.9915674567067192e-01  9.9915674567072543e-01  9.9915674567075896e-01  9.9915674567069157e-01  9.9915674567063129e-01  9.9915674567058155e-01  9.9915674567059132e-01  9.9915674567068591e-01  9.9915674567078727e-01  9.9915674567060686e-01  9.9915674567074686e-01  9.9915674567057888e-01  9.9915674567075319e-01  9.9915674567062784e-01  9.9915674567070745e-01  9.9915674567071600e-01  9.9961056866590958e-01  9.9961056866594722e-01  9.9961056866594244e-01  9.9961056866594478e-01  9.9961056866597819e-01  9.9961056866591713e-01  9.9961056866594555e-01  9.9961056866601217e-01  9.9961056866601117e-01  9.9961056866585163e-01  9.9961056866595299e-01  9.9961056866585019e-01  9.9961056866588782e-01  9.9961056866587239e-01  9.9961056866597409e-01  9.9961056866594711e-01  9.9961056866592302e-01  9.9961056866600606e-01  9.9961056866602094e-01  9.9961056866589748e-01  9.9961056866595555e-01  9.9961056866590170e-01  9.9961056866596554e-01  9.9961056866587306e-01  9.9961056866583065e-01  9.9961056866601916e-01  9.9961056866593645e-01  9.9961056866583675e-01  9.9961056866615294e-01  9.9961056866599174e-01  9.9961056866590958e-01  1.0001317305204145e+00  1.0001317305205473e+00  1.0001317305203727e+00  1.0001317305203195e+00  1.0001317305201955e+00  1.0001317305202799e+00  1.0001317305204100e+00  1.0001317305204716e+00  1.0001317305204529e+00  1.0001317305203330e+00  1.0001317305203692e+00  1.0001317305202260e+00  1.0001317305202919e+00  1.0001317305203210e+00  1.0001317305203263e+00  1.0001317305203365e+00  1.0001317305203394e+00  1.0001317305203017e+00  1.0001317305204349e+00  1.0001317305202755e+00  1.0001317305203057e+00  1.0001317305203512e+00  1.0001317305203528e+00  1.0001317305202388e+00  1.0001317305202797e+00  1.0001317305202948e+00  1.0001317305203501e+00  1.0001317305203938e+00  1.0001317305204271e+00  1.0001317305202528e+00  1.0001317305204145e+00  1.0006301179393082e+00  1.0006301179391610e+00  1.0006301179391401e+00  1.0006301179393409e+00  1.0006301179391981e+00  1.0006301179389758e+00  1.0006301179392028e+00  1.0006301179391968e+00  1.0006301179392170e+00  1.0006301179392016e+00  1.0006301179392443e+00  1.0006301179390378e+00  1.0006301179390997e+00  1.0006301179392076e+00  1.0006301179390393e+00  1.0006301179391350e+00  1.0006301179392216e+00  1.0006301179391590e+00  1.0006301179392165e+00  1.0006301179391357e+00  1.0006301179392034e+00  1.0006301179390746e+00  1.0006301179391259e+00  1.0006301179392478e+00  1.0006301179391235e+00  1.0006301179391659e+00  1.0006301179390109e+00  1.0006301179390946e+00  1.0006301179391399e+00  1.0006301179393386e+00  1.0006301179393082e+00  1.0010195541411164e+00  1.0010195541411964e+00  1.0010195541410061e+00  1.0010195541410540e+00  1.0010195541408928e+00  1.0010195541409719e+00  1.0010195541410476e+00  1.0010195541409663e+00  1.0010195541409765e+00  1.0010195541410292e+00  1.0010195541409861e+00  1.0010195541410267e+00  1.0010195541409346e+00  1.0010195541409959e+00  1.0010195541409153e+00  1.0010195541409628e+00  1.0010195541409295e+00  1.0010195541409657e+00  1.0010195541408324e+00  1.0010195541408906e+00  1.0010195541409403e+00  1.0010195541408693e+00  1.0010195541409330e+00  1.0010195541409390e+00  1.0010195541409868e+00  1.0010195541409437e+00  1.0010195541409184e+00  1.0010195541409725e+00  1.0010195541409366e+00  1.0010195541410951e+00  1.0010195541411164e+00  1.0012327003347745e+00  1.0012327003367805e+00  1.0012327003371857e+00  1.0012327003367947e+00  1.0012327003347050e+00  1.0012327003345194e+00  1.0012327003346284e+00  1.0012327003347323e+00  1.0012327003346537e+00  1.0012327003347328e+00  1.0012327003345984e+00  1.0012327003347816e+00  1.0012327003344956e+00  1.0012327003346428e+00  1.0012327003347099e+00  1.0012327003344907e+00  1.0012327003347046e+00  1.0012327003346599e+00  1.0012327003346939e+00  1.0012327003345778e+00  1.0012327003345798e+00  1.0012327003345045e+00  1.0012327003346708e+00  1.0012327003348092e+00  1.0012327003347758e+00  1.0012327003346222e+00  1.0012327003346839e+00  1.0012327003345403e+00  1.0012327003345938e+00  1.0012327003345640e+00  1.0012327003347745e+00  1.0012327003368522e+00  1.0012327003367636e+00  1.0012327003366148e+00  1.0012327003346027e+00  1.0012327003346528e+00  1.0012327003346810e+00  1.0012327003348409e+00  1.0012327003346524e+00  1.0012327003347707e+00  1.0012327003347044e+00  1.0012327003347381e+00  1.0012327003347907e+00  1.0012327003348922e+00  1.0012327003348473e+00  1.0012327003346821e+00  1.0012327003346762e+00  1.0012327003345571e+00  1.0012327003347892e+00  1.0012327003346695e+00  1.0012327003347912e+00  1.0012327003347186e+00  1.0012327003348698e+00  1.0012327003347861e+00  1.0012327003347357e+00  1.0012327003347659e+00  1.0012327003348895e+00  1.0012327003348498e+00  1.0012327003347850e+00  1.0012327003347721e+00  1.0012327003348802e+00  1.0012327003368522e+00  1.0010195541412079e+00  1.0010195541411693e+00  1.0010195541412517e+00  1.0010195541412030e+00  1.0010195541412752e+00  1.0010195541410629e+00  1.0010195541410578e+00  1.0010195541411564e+00  1.0010195541410007e+00  1.0010195541411584e+00  1.0010195541410667e+00  1.0010195541411864e+00  1.0010195541411295e+00  1.0010195541409574e+00  1.0010195541411813e+00  1.0010195541411264e+00  1.0010195541411271e+00  1.0010195541410287e+00  1.0010195541410751e+00  1.0010195541409446e+00  1.0010195541411568e+00  1.0010195541412246e+00  1.0010195541410751e+00  1.0010195541410438e+00  1.0010195541411411e+00  1.0010195541410853e+00  1.0010195541411830e+00  1.0010195541410527e+00  1.0010195541411311e+00  1.0010195541412565e+00  1.0010195541412079e+00  1.0006301179389385e+00  1.0006301179389667e+00  1.0006301179391808e+00  1.0006301179391301e+00  1.0006301179391752e+00  1.0006301179392620e+00  1.0006301179390491e+00  1.0006301179392598e+00  1.0006301179390582e+00  1.0006301179390664e+00  1.0006301179390142e+00  1.0006301179390753e+00  1.0006301179391572e+00  1.0006301179389596e+00  1.0006301179391637e+00  1.0006301179391401e+00  1.0006301179390986e+00  1.0006301179390980e+00  1.0006301179391470e+00  1.0006301179389523e+00  1.0006301179390016e+00  1.0006301179391963e+00  1.0006301179392039e+00  1.0006301179391255e+00  1.0006301179391137e+00  1.0006301179391488e+00  1.0006301179391157e+00  1.0006301179391983e+00  1.0006301179390147e+00  1.0006301179391073e+00  1.0006301179389385e+00  1.0001317305205544e+00  1.0001317305206310e+00  1.0001317305205519e+00  1.0001317305206034e+00  1.0001317305204829e+00  1.0001317305206099e+00  1.0001317305206749e+00  1.0001317305206043e+00  1.0001317305205892e+00  1.0001317305205344e+00  1.0001317305205653e+00  1.0001317305204753e+00  1.0001317305205444e+00  1.0001317305206483e+00  1.0001317305205599e+00  1.0001317305204738e+00  1.0001317305205319e+00  1.0001317305206827e+00  1.0001317305206445e+00  1.0001317305205264e+00  1.0001317305204476e+00  1.0001317305206154e+00  1.0001317305205646e+00  1.0001317305205546e+0