<?xml version="1.0"?>
<VTKFile type="UnstructuredGrid"  version="0.1"  >
<UnstructuredGrid>
<Piece  NumberOfPoints="961" NumberOfCells="1800">
<Points>
<DataArray  type="Float64"  NumberOfComponents="3"  format="ascii">0 0 0  0.03333333333333333 0 0  0.06666666666666667 0 0  0.1 0 0  0.1333333333333333 0 0  0.1666666666666667 0 0  0.2 0 0  0.2333333333333333 0 0  0.2666666666666667 0 0  0.3 0 0  0.3333333333333333 0 0  0.3666666666666666 0 0  0.4 0 0  0.4333333333333333 0 0  0.4666666666666667 0 0  0.5 0 0  0.5333333333333333 0 0  0.5666666666666667 0 0  0.6 0 0  0.6333333333333333 0 0  0.6666666666666666 0 0  0.7 0 0  0.7333333333333333 0 0  0.7666666666666667 0 0  0.8 0 0  0.8333333333333334 0 0  0.8666666666666667 0 0  0.9 0 0  0.9333333333333333 0 0  0.9666666666666667 0 0  1 0 0  0 0.03333333333333333 0  0.03333333333333333 0.03333333333333333 0  0.06666666666666667 0.03333333333333333 0  0.1 0.03333333333333333 0  0.1333333333333333 0.03333333333333333 0  0.1666666666666667 0.03333333333333333 0  0.2 0.03333333333333333 0  0.2333333333333333 0.03333333333333333 0  0.2666666666666667 0.03333333333333333 0  0.3 0.03333333333333333 0  0.3333333333333333 0.03333333333333333 0  0.3666666666666666 0.03333333333333333 0  0.4 0.03333333333333333 0  0.4333333333333333 0.03333333333333333 0  0.4666666666666667 0.03333333333333333 0  0.5 0.03333333333333333 0  0.5333333333333333 0.03333333333333333 0  0.5666666666666667 0.03333333333333333 0  0.6 0.03333333333333333 0  0.6333333333333333 0.03333333333333333 0  0.6666666666666666 0.03333333333333333 0  0.7 0.03333333333333333 0  0.7333333333333333 0.03333333333333333 0  0.7666666666666667 0.03333333333333333 0  0.8 0.03333333333333333 0  0.8333333333333334 0.03333333333333333 0  0.8666666666666667 0.03333333333333333 0  0.9 0.03333333333333333 0  0.9333333333333333 0.03333333333333333 0  0.9666666666666667 0.03333333333333333 0  1 0.03333333333333333 0  0 0.06666666666666667 0  0.03333333333333333 0.06666666666666667 0  0.06666666666666667 0.06666666666666667 0  0.1 0.06666666666666667 0  0.1333333333333333 0.06666666666666667 0  0.1666666666666667 0.06666666666666667 0  0.2 0.06666666666666667 0  0.2333333333333333 0.06666666666666667 0  0.2666666666666667 0.06666666666666667 0  0.3 0.06666666666666667 0  0.3333333333333333 0.06666666666666667 0  0.3666666666666666 0.06666666666666667 0  0.4 0.06666666666666667 0  0.4333333333333333 0.06666666666666667 0  0.4666666666666667 0.06666666666666667 0  0.5 0.06666666666666667 0  0.5333333333333333 0.06666666666666667 0  0.5666666666666667 0.06666666666666667 0  0.6 0.06666666666666667 0  0.6333333333333333 0.06666666666666667 0  0.6666666666666666 0.06666666666666667 0  0.7 0.06666666666666667 0  0.7333333333333333 0.06666666666666667 0  0.7666666666666667 0.06666666666666667 0  0.8 0.06666666666666667 0  0.8333333333333334 0.06666666666666667 0  0.8666666666666667 0.06666666666666667 0  0.9 0.06666666666666667 0  0.9333333333333333 0.06666666666666667 0  0.9666666666666667 0.06666666666666667 0  1 0.06666666666666667 0  0 0.1 0  0.03333333333333333 0.1 0  0.06666666666666667 0.1 0  0.1 0.1 0  0.1333333333333333 0.1 0  0.1666666666666667 0.1 0  0.2 0.1 0  0.2333333333333333 0.1 0  0.2666666666666667 0.1 0  0.3 0.1 0  0.3333333333333333 0.1 0  0.3666666666666666 0.1 0  0.4 0.1 0  0.4333333333333333 0.1 0  0.4666666666666667 0.1 0  0.5 0.1 0  0.5333333333333333 0.1 0  0.5666666666666667 0.1 0  0.6 0.1 0  0.6333333333333333 0.1 0  0.6666666666666666 0.1 0  0.7 0.1 0  0.7333333333333333 0.1 0  0.7666666666666667 0.1 0  0.8 0.1 0  0.8333333333333334 0.1 0  0.8666666666666667 0.1 0  0.9 0.1 0  0.9333333333333333 0.1 0  0.9666666666666667 0.1 0  1 0.1 0  0 0.1333333333333333 0  0.03333333333333333 0.1333333333333333 0  0.06666666666666667 0.1333333333333333 0  0.1 0.1333333333333333 0  0.1333333333333333 0.1333333333333333 0  0.1666666666666667 0.1333333333333333 0  0.2 0.1333333333333333 0  0.2333333333333333 0.1333333333333333 0  0.2666666666666667 0.1333333333333333 0  0.3 0.1333333333333333 0  0.3333333333333333 0.1333333333333333 0  0.3666666666666666 0.1333333333333333 0  0.4 0.1333333333333333 0  0.4333333333333333 0.1333333333333333 0  0.4666666666666667 0.1333333333333333 0  0.5 0.1333333333333333 0  0.5333333333333333 0.1333333333333333 0  0.5666666666666667 0.1333333333333333 0  0.6 0.1333333333333333 0  0.6333333333333333 0.1333333333333333 0  0.6666666666666666 0.1333333333333333 0  0.7 0.1333333333333333 0  0.7333333333333333 0.1333333333333333 0  0.7666666666666667 0.1333333333333333 0  0.8 0.1333333333333333 0  0.8333333333333334 0.1333333333333333 0  0.8666666666666667 0.1333333333333333 0  0.9 0.1333333333333333 0  0.9333333333333333 0.1333333333333333 0  0.9666666666666667 0.1333333333333333 0  1 0.1333333333333333 0  0 0.1666666666666667 0  0.03333333333333333 0.1666666666666667 0  0.06666666666666667 0.1666666666666667 0  0.1 0.1666666666666667 0  0.1333333333333333 0.1666666666666667 0  0.1666666666666667 0.1666666666666667 0  0.2 0.1666666666666667 0  0.2333333333333333 0.1666666666666667 0  0.2666666666666667 0.1666666666666667 0  0.3 0.1666666666666667 0  0.3333333333333333 0.1666666666666667 0  0.3666666666666666 0.1666666666666667 0  0.4 0.1666666666666667 0  0.4333333333333333 0.1666666666666667 0  0.4666666666666667 0.1666666666666667 0  0.5 0.1666666666666667 0  0.5333333333333333 0.1666666666666667 0  0.5666666666666667 0.1666666666666667 0  0.6 0.1666666666666667 0  0.6333333333333333 0.1666666666666667 0  0.6666666666666666 0.1666666666666667 0  0.7 0.1666666666666667 0  0.7333333333333333 0.1666666666666667 0  0.7666666666666667 0.1666666666666667 0  0.8 0.1666666666666667 0  0.8333333333333334 0.1666666666666667 0  0.8666666666666667 0.1666666666666667 0  0.9 0.1666666666666667 0  0.9333333333333333 0.1666666666666667 0  0.9666666666666667 0.1666666666666667 0  1 0.1666666666666667 0  0 0.2 0  0.03333333333333333 0.2 0  0.06666666666666667 0.2 0  0.1 0.2 0  0.1333333333333333 0.2 0  0.1666666666666667 0.2 0  0.2 0.2 0  0.2333333333333333 0.2 0  0.2666666666666667 0.2 0  0.3 0.2 0  0.3333333333333333 0.2 0  0.3666666666666666 0.2 0  0.4 0.2 0  0.4333333333333333 0.2 0  0.4666666666666667 0.2 0  0.5 0.2 0  0.5333333333333333 0.2 0  0.5666666666666667 0.2 0  0.6 0.2 0  0.6333333333333333 0.2 0  0.6666666666666666 0.2 0  0.7 0.2 0  0.7333333333333333 0.2 0  0.7666666666666667 0.2 0  0.8 0.2 0  0.8333333333333334 0.2 0  0.8666666666666667 0.2 0  0.9 0.2 0  0.9333333333333333 0.2 0  0.9666666666666667 0.2 0  1 0.2 0  0 0.2333333333333333 0  0.03333333333333333 0.2333333333333333 0  0.06666666666666667 0.2333333333333333 0  0.1 0.2333333333333333 0  0.1333333333333333 0.2333333333333333 0  0.1666666666666667 0.2333333333333333 0  0.2 0.2333333333333333 0  0.2333333333333333 0.2333333333333333 0  0.2666666666666667 0.2333333333333333 0  0.3 0.2333333333333333 0  0.3333333333333333 0.2333333333333333 0  0.3666666666666666 0.2333333333333333 0  0.4 0.2333333333333333 0  0.4333333333333333 0.2333333333333333 0  0.4666666666666667 0.2333333333333333 0  0.5 0.2333333333333333 0  0.5333333333333333 0.2333333333333333 0  0.5666666666666667 0.2333333333333333 0  0.6 0.2333333333333333 0  0.6333333333333333 0.2333333333333333 0  0.6666666666666666 0.2333333333333333 0  0.7 0.2333333333333333 0  0.7333333333333333 0.2333333333333333 0  0.7666666666666667 0.2333333333333333 0  0.8 0.2333333333333333 0  0.8333333333333334 0.2333333333333333 0  0.8666666666666667 0.2333333333333333 0  0.9 0.2333333333333333 0  0.9333333333333333 0.2333333333333333 0  0.9666666666666667 0.2333333333333333 0  1 0.2333333333333333 0  0 0.2666666666666667 0  0.03333333333333333 0.2666666666666667 0  0.06666666666666667 0.2666666666666667 0  0.1 0.2666666666666667 0  0.1333333333333333 0.2666666666666667 0  0.1666666666666667 0.2666666666666667 0  0.2 0.2666666666666667 0  0.2333333333333333 0.2666666666666667 0  0.2666666666666667 0.2666666666666667 0  0.3 0.2666666666666667 0  0.3333333333333333 0.2666666666666667 0  0.3666666666666666 0.2666666666666667 0  0.4 0.2666666666666667 0  0.4333333333333333 0.2666666666666667 0  0.4666666666666667 0.2666666666666667 0  0.5 0.2666666666666667 0  0.5333333333333333 0.2666666666666667 0  0.5666666666666667 0.2666666666666667 0  0.6 0.2666666666666667 0  0.6333333333333333 0.2666666666666667 0  0.6666666666666666 0.2666666666666667 0  0.7 0.2666666666666667 0  0.7333333333333333 0.2666666666666667 0  0.7666666666666667 0.2666666666666667 0  0.8 0.2666666666666667 0  0.8333333333333334 0.2666666666666667 0  0.8666666666666667 0.2666666666666667 0  0.9 0.2666666666666667 0  0.9333333333333333 0.2666666666666667 0  0.9666666666666667 0.2666666666666667 0  1 0.2666666666666667 0  0 0.3 0  0.03333333333333333 0.3 0  0.06666666666666667 0.3 0  0.1 0.3 0  0.1333333333333333 0.3 0  0.1666666666666667 0.3 0  0.2 0.3 0  0.2333333333333333 0.3 0  0.2666666666666667 0.3 0  0.3 0.3 0  0.3333333333333333 0.3 0  0.3666666666666666 0.3 0  0.4 0.3 0  0.4333333333333333 0.3 0  0.4666666666666667 0.3 0  0.5 0.3 0  0.5333333333333333 0.3 0  0.5666666666666667 0.3 0  0.6 0.3 0  0.6333333333333333 0.3 0  0.6666666666666666 0.3 0  0.7 0.3 0  0.7333333333333333 0.3 0  0.7666666666666667 0.3 0  0.8 0.3 0  0.8333333333333334 0.3 0  0.8666666666666667 0.3 0  0.9 0.3 0  0.9333333333333333 0.3 0  0.9666666666666667 0.3 0  1 0.3 0  0 0.3333333333333333 0  0.03333333333333333 0.3333333333333333 0  0.06666666666666667 0.3333333333333333 0  0.1 0.3333333333333333 0  0.1333333333333333 0.3333333333333333 0  0.1666666666666667 0.3333333333333333 0  0.2 0.3333333333333333 0  0.2333333333333333 0.3333333333333333 0  0.2666666666666667 0.3333333333333333 0  0.3 0.3333333333333333 0  0.3333333333333333 0.3333333333333333 0  0.3666666666666666 0.3333333333333333 0  0.4 0.3333333333333333 0  0.4333333333333333 0.3333333333333333 0  0.4666666666666667 0.3333333333333333 0  0.5 0.3333333333333333 0  0.5333333333333333 0.33333333333333
[...]
<PointData  Scalars="q_f"> 
<DataArray  type="Float64"  Name="q_f"  format="ascii">9.9873977897547017e-01  9.9873977897555011e-01  9.9873977897552280e-01  9.9873977897548283e-01  9.9873977897543953e-01  9.9873977897561339e-01  9.9873977897539445e-01  9.9873977897557042e-01  9.9873977897553767e-01  9.9873977897564736e-01  9.9873977897554822e-01  9.9873977897558430e-01  9.9873977897882371e-01  9.9873977897577770e-01  9.9873977897526445e-01  9.9873977897556521e-01  9.9873977897551036e-01  9.9873977897540156e-01  9.9873977897539634e-01  9.9873977897535338e-01  9.9873977897538835e-01  9.9873977897551036e-01  9.9873977897531196e-01  9.9873977897197552e-01  9.9873977897519983e-01  9.9873977897542465e-01  9.9873977897540567e-01  9.9873977897527400e-01  9.9873977897555777e-01  9.9873977897532396e-01  9.9873977897547017e-01  9.9884873009591157e-01  9.9884873009610287e-01  9.9884873009588526e-01  9.9884873009589359e-01  9.9884873009577824e-01  9.9884873009596564e-01  9.9884873009588471e-01  9.9884873009593511e-01  9.9884873009592712e-01  9.9884873009588537e-01  9.9884873009618758e-01  9.9884873009931974e-01  9.9884873009902797e-01  9.9884873009597952e-01  9.9884873009585406e-01  9.9884873009583963e-01  9.9884873009577813e-01  9.9884873009580732e-01  9.9884873009599895e-01  9.9884873009589381e-01  9.9884873009580377e-01  9.9884873009561292e-01  9.9884873009248265e-01  9.9884873009267627e-01  9.9884873009577579e-01  9.9884873009595621e-01  9.9884873009599684e-01  9.9884873009586805e-01  9.9884873009584263e-01  9.9884873009575292e-01  9.9884873009591157e-01  9.9915674560519430e-01  9.9915674560509338e-01  9.9915674560523804e-01  9.9915674560541845e-01  9.9915674560531875e-01  9.9915674560533951e-01  9.9915674560524737e-01  9.9915674560515477e-01  9.9915674560535106e-01  9.9915674560533696e-01  9.9915674560528533e-01  9.9915674560913403e-01  9.9915674560821943e-01  9.9915674560543433e-01  9.9915674560525525e-01  9.9915674560510404e-01  9.9915674560525425e-01  9.9915674560544998e-01  9.9915674560521106e-01  9.9915674560519796e-01  9.9915674560509338e-01  9.9915674560505685e-01  9.9915674560149459e-01  9.9915674560230083e-01  9.9915674560507906e-01  9.9915674560515066e-01  9.9915674560534340e-01  9.9915674560530721e-01  9.9915674560527667e-01  9.9915674560518553e-01  9.9915674560519430e-01  9.9961056861564979e-01  9.9961056861550568e-01  9.9961056861557152e-01  9.9961056861547215e-01  9.9961056861552788e-01  9.9961056861560682e-01  9.9961056861537900e-01  9.9961056861553887e-01  9.9961056861537623e-01  9.9961056861545949e-01  9.9961056861566622e-01  9.9961056861906084e-01  9.9961056861510555e-01  9.9961056861565034e-01  9.9961056861552600e-01  9.9961056861528608e-01  9.9961056861558639e-01  9.9961056861560171e-01  9.9961056861554565e-01  9.9961056861551634e-01  9.9961056861542863e-01  9.9961056861515429e-01  9.9961056861209885e-01  9.9961056861575781e-01  9.9961056861543740e-01  9.9961056861533804e-01  9.9961056861552189e-01  9.9961056861555742e-01  9.9961056861549225e-01  9.9961056861560971e-01  9.9961056861564979e-01  1.0001317305392137e+00  1.0001317305393398e+00  1.0001317305391118e+00  1.0001317305390471e+00  1.0001317305390502e+00  1.0001317305391704e+00  1.0001317305390323e+00  1.0001317305392154e+00  1.0001317305390243e+00  1.0001317305392088e+00  1.0001317305391897e+00  1.0001317305391983e+00  1.0001317305391531e+00  1.0001317305391746e+00  1.0001317305391562e+00  1.0001317305388913e+00  1.0001317305391737e+00  1.0001317305391895e+00  1.0001317305390980e+00  1.0001317305390978e+00  1.0001317305391384e+00  1.0001317305390360e+00  1.0001317305389374e+00  1.0001317305392456e+00  1.0001317305388413e+00  1.0001317305392263e+00  1.0001317305389761e+00  1.0001317305391542e+00  1.0001317305391357e+00  1.0001317305392075e+00  1.0001317305392137e+00  1.0006301180065496e+00  1.0006301180065922e+00  1.0006301180066168e+00  1.0006301180065544e+00  1.0006301180065351e+00  1.0006301180065551e+00  1.0006301180065234e+00  1.0006301180064618e+00  1.0006301180066473e+00  1.0006301180064350e+00  1.0006301180065520e+00  1.0006301180064634e+00  1.0006301180065882e+00  1.0006301180064667e+00  1.0006301180065673e+00  1.0006301180065496e+00  1.0006301180063923e+00  1.0006301180066770e+00  1.0006301180066561e+00  1.0006301180064163e+00  1.0006301180066506e+00  1.0006301180064610e+00  1.0006301180067243e+00  1.0006301180064727e+00  1.0006301180063897e+00  1.0006301180064636e+00  1.0006301180065627e+00  1.0006301180065362e+00  1.0006301180064461e+00  1.0006301180064405e+00  1.0006301180065496e+00  1.0010195541890829e+00  1.0010195541889895e+00  1.0010195541891289e+00  1.0010195541890810e+00  1.0010195541892042e+00  1.0010195541891462e+00  1.0010195541892828e+00  1.0010195541892597e+00  1.0010195541889793e+00  1.0010195541891023e+00  1.0010195541891960e+00  1.0010195541892153e+00  1.0010195541890285e+00  1.0010195541892226e+00  1.0010195541892541e+00  1.0010195541889968e+00  1.0010195541891012e+00  1.0010195541891267e+00  1.0010195541890754e+00  1.0010195541891900e+00  1.0010195541889957e+00  1.0010195541891020e+00  1.0010195541891864e+00  1.0010195541888645e+00  1.0010195541891973e+00  1.0010195541891942e+00  1.0010195541891833e+00  1.0010195541890918e+00  1.0010195541892610e+00  1.0010195541892142e+00  1.0010195541890829e+00  1.0012327003377897e+00  1.0012327003377357e+00  1.0012327003378256e+00  1.0012327003378145e+00  1.0012327003378201e+00  1.0012327003377635e+00  1.0012327003379162e+00  1.0012327003377062e+00  1.0012327003378760e+00  1.0012327003377979e+00  1.0012327003378594e+00  1.0012327003380532e+00  1.0012327003376864e+00  1.0012327003377199e+00  1.0012327003376438e+00  1.0012327003378154e+00  1.0012327003376900e+00  1.0012327003376373e+00  1.0012327003377104e+00  1.0012327003376180e+00  1.0012327003378096e+00  1.0012327003378521e+00  1.0012327003378840e+00  1.0012327003377592e+00  1.0012327003376613e+00  1.0012327003377659e+00  1.0012327003378292e+00  1.0012327003377892e+00  1.0012327003378689e+00  1.0012327003378958e+00  1.0012327003377897e+00  1.0012327003380190e+00  1.0012327003380124e+00  1.0012327003379711e+00  1.0012327003379391e+00  1.0012327003377859e+00  1.0012327003380272e+00  1.0012327003381247e+00  1.0012327003380395e+00  1.0012327003380408e+00  1.0012327003379320e+00  1.0012327003379673e+00  1.0012327003379955e+00  1.0012327003377748e+00  1.0012327003379284e+00  1.0012327003380506e+00  1.0012327003379320e+00  1.0012327003377031e+00  1.0012327003379649e+00  1.0012327003377706e+00  1.0012327003380039e+00  1.0012327003378259e+00  1.0012327003380930e+00  1.0012327003381960e+00  1.0012327003380719e+00  1.0012327003380996e+00  1.0012327003379766e+00  1.0012327003380135e+00  1.0012327003379811e+00  1.0012327003379999e+00  1.0012327003378589e+00  1.0012327003380190e+00  1.0010195541892746e+00  1.0010195541893894e+00  1.0010195541889904e+00  1.0010195541892082e+00  1.0010195541893427e+00  1.0010195541891731e+00  1.0010195541893252e+00  1.0010195541892999e+00  1.0010195541894071e+00  1.0010195541892544e+00  1.0010195541892630e+00  1.0010195541891640e+00  1.0010195541894173e+00  1.0010195541892859e+00  1.0010195541893674e+00  1.0010195541891482e+00  1.0010195541892406e+00  1.0010195541892952e+00  1.0010195541892102e+00  1.0010195541891775e+00  1.0010195541893909e+00  1.0010195541893028e+00  1.0010195541891922e+00  1.0010195541892908e+00  1.0010195541893439e+00  1.0010195541893456e+00  1.0010195541893547e+00  1.0010195541891804e+00  1.0010195541891589e+00  1.0010195541894775e+00  1.0010195541892746e+00  1.0006301180062660e+00  1.0006301180061090e+00  1.0006301180062938e+00  1.0006301180060095e+00  1.0006301180063302e+00  1.0006301180063903e+00  1.0006301180067321e+00  1.0006301180065549e+00  1.0006301180063952e+00  1.0006301180064041e+00  1.0006301180065715e+00  1.0006301180065702e+00  1.0006301180065724e+00  1.0006301180064192e+00  1.0006301180065624e+00  1.0006301180064288e+00  1.0006301180065302e+00  1.0006301180065045e+00  1.0006301180066344e+00  1.0006301180066077e+00  1.0006301180063988e+00  1.0006301180063630e+00  1.0006301180065706e+00  1.0006301180064432e+00  1.0006301180065444e+00  1.0006301180066499e+00  1.0006301180063224e+00  1.0006301180064339e+00  1.0006301180063903e+00  1.0006301180062629e+00  1.0006301180062660e+00  1.0001317305390469e+00  1.0001317305360016e+00  1.0001317305355997e+00  1.0001317305358239e+00  1.0001317305391764e+00  1.0001317305393980e+00  1.0001317305394410e+00  1.0001317305394279e+00  1.0001317305395705e+00  1.0001317305394299e+00  1.0001317305394115e+00  1.0001317305392994e+00  1.0001317305392627e+00  1.0001317305392770e+00  1.0001317305394835e+00  1.0001317305393382e+00  1.0001317305394590e+00  1.0001317305394199e+00  1.0001317305394584e+00  1.0001317305393136e+00  1.0001317305393551e+00  1.0001317305394495e+00  1.0001317305394428e+00  1.0001317305395312e+00  1.0001317305394914e+00  1.0001317305392641e+00  1.0001317305393713e+00  1.0001317305394448e+00  1.0001317305392721e+00  1.0001317305395163e+00  1.0001317305390469e+00  9.9961056861207354e-01  9.9961056861222009e-01  9.9961056861250042e-01  9.9961056861585584e-01  9.9961056861552866e-01  9.9961056861555342e-01  9.9961056861530706e-01  9.9961056861552866e-01  9.9961056861543274e-01  9.9961056861556596e-01  9.9961056861538766e-01  9.9961056861548903e-01  9.9961056861536612e-01  9.9961056861558628e-01  9.9961056861550568e-01  9.9961056861543562e-01  9.9961056861550845e-01  9.9961056861546393e-01  9.9961056861541631e-01  9.9961056861570186e-01  9.9961056861540676e-01  9.9961056861553266e-01  9.9961056861545072e-01  9.9961056861542263e-01  9.9961056861543696e-01  9.9961056861548192e-01  9.9961056861547393e-01  9.9961056861537823e-01  9.9961056861548536e-01  9.9961056861550301e-01  9.9961056861207354e-01  9.9915674560478218e-01  9.9915674560499712e-01  9.9915674560500378e-01  9.9915674560534073e-01  9.9915674560507506e-01  9.9915674560516832e-01  9.9915674560539502e-01  9.9915674560519385e-01  9.9915674560508339e-01  9.9915674560530177e-01  9.9915674560536583e-01  9.9915674560526180e-01  9.9915674560526191e-01  9.9915674560535450e-01  9.9915674560528789e-01  9.9915674560523571e-01  9.9915674560517143e-01  9.9915674560528023e-01  9.9915674560525336e-01  9.9915674560519585e-01  9.9915674560519563e-01  9.9915674560523027e-01  9.9915674560538958e-01  9.9915674560541012e-01  9.9915674560531731e-01  9.9915674560529188e-01  9.9915674560523482e-01  9.9915674560529066e-01  9.9915674560525081e-01  9.9915674560533962e-01  9.9915674560478218e-01  9.9884873009598685e-01  9.9884873009587194e-01  9.9884873009596153e-01  9.9884873009574804e-01  9.9884873009592257e-01  9.9884873009599706e-01  9.9884873009576347e-01  9.9884873009590591e-01  9.9884873009594322e-01  9.9884873009596997e-01  9.9884873009592134e-01  9.9884873009595476e-01  9.9884873009586761e-01  9.9884873009599784e-01  9.9884873009581399e-01  9.9884873009593045e-01  9.9884873009580377e-01  9.9884873009590558e-01  9.9884873009570851e-01  9.9884873009591801e-01  9.9884873009583586e-01  9.9884873009573849e-01  9.9884873009585284e-01  9.9884873009570319e-01  9.9884873009584296e-01  9.9884873009599551e-01  9.9884873009581188e-01  9.9884873009576214e-01  9.9884873009580388e-01  9.9884873009574682e-01  9.9884873009598685e-01  9.9873977897553801e-01  9.9873977897559840e-01  9.9873977897546784e-01  9.9873977897536592e-01  9.9873977897541466e-01  9.9873977897550625e-01  9.9873977897564026e-01  9.9873977897555277e-01  9.9873977897550348e-01  9.9873977897551569e-01  9.9873977897557886e-01  9.9873977897545163e-01  9.9873977897557886e-01  9.9873977897550525e-01  9.9873977897547861e-01  9.9873977897546495e-01  9.9873977897547617e-01  9.9873977897540056e-01  9.9873977897545019e-01  9.9873977897531896e-01  9.9873977897536570e-01  9.9873977897551858e-01  9.9873977897534583e-01  9.9873977897565436e-01  9.9873977897533039e-01  9.9873977897553423e-01  9.9873977897541844e-01  9.9873977897557342e-01  9.9873977897535759e-01  9.9873977897532229e-01  9.9873977897553801e-01  9.9884873009598885e-01  9.9884873009607522e-01  9.9884873009580999e-01  9.9884873009593755e-01  9.9884873009581976e-01  9.9884873009595820e-01  9.9884873009584385e-01  9.9884873009595343e-01  9.9884873009576369e-01  9.9884873009585029e-01  9.9884873009573660e-01  9.9884873009577113e-01  9.9884873009590869e-01  9.9884873009587039e-01  9.9884873009572750e-01  9.9884873009573971e-01  9.9884873009584940e-01  9.9884873009578246e-01  9.9884873009568587e-01  9.9884873009563735e-01  9.9884873009586506e-01  9.9884873009589115e-01  9.9884873009602593e-01  9.9884873009582065e-01  9.9884873009576469e-01  9.9884873009592301e-01  9.9884873009568320e-01  9.9884873009578701e-01  9.9884873009566899e-01  9.9884873009567887e-01  9.9884873009598885e-01  9.9915674560525358e-01  9.9915674560530132e-01  9.9915674560552403e-01  9.9915674560532775e-01  9.9915674560511802e-01  9.9915674560530154e-01  9.9915674560535739e-01  9.9915674560535328e-01  9.9915674560543077e-01  9.9915674560524770e-01  9.9915674560542378e-01  9.9915674560545265e-01  9.9915674560528844e-01  9.9915674560534473e-01  9.9915674560526002e-01  9.9915674560526802e-01  9.9915674560530021e-01  9.9915674560532763e-01  9.9915674560532131e-01  9.9915674560521506e-01  9.9915674560522194e-01  9.9915674560511369e-01  9.9915674560526369e-01  9.9915674560545220e-01  9.9915674560521084e-01  9.9915674560537648e-01  9.9915674560511680e-01  9.9915674560531653e-01  9.9915674560521928e-01  9.9915674560511092e-01  9.9915674560525358e-01  9.9961056861549247e-01  9.9961056861559183e-01  9.9961056861547215e-01  9.9961056861555730e-01  9.9961056861560793e-01  9.9961056861551334e-01  9.9961056861549236e-01  9.9961056861551911e-01  9.9961056861554343e-01  9.9961056861549480e-01  9.9961056861550290e-01  9.9961056861542374e-01  9.9961056861542819e-01  9.9961056861537811e-01  9.9961056861558184e-01  9.9961056861557696e-01  9.9961056861544539e-01  9.9961056861562703e-01  9.9961056861556696e-01  9.9961056861546438e-01  9.9961056861554898e-01  9.9961056861549202e-01  9.9961056861563014e-01  9.9961056861548259e-01  9.9961056861539310e-01  9.9961056861548736e-01  9.9961056861554942e-01  9.9961056861538977e-01  9.9961056861574571e-01  9.9961056861560382e-01  9.9961056861549247e-01  1.0001317305392174e+00  1.0001317305394186e+00  1.0001317305392312e+00  1.0001317305390074e+00  1.0001317305388919e+00  1.0001317305389701e+00  1.0001317305392174e+00  1.0001317305392798e+00  1.0001317305392181e+00  1.0001317305390833e+00  1.0001317305390713e+00  1.0001317305389932e+00  1.0001317305391706e+00  1.0001317305390640e+00  1.0001317305390214e+00  1.0001317305392530e+00  1.0001317305390893e+00  1.0001317305391353e+00  1.0001317305392630e+00  1.0001317305389745e+00  1.0001317305391073e+00  1.0001317305391275e+00  1.0001317305391328e+00  1.0001317305390389e+00  1.0001317305390542e+00  1.0001317305390931e+00  1.0001317305390673e+00  1.0001317305392483e+00  1.0001317305392721e+00  1.0001317305389530e+00  1.0001317305392174e+00  1.0006301180067403e+00  1.0006301180064512e+00  1.0006301180065484e+00  1.0006301180066617e+00  1.0006301180065551e+00  1.0006301180063095e+00  1.0006301180065094e+00  1.0006301180064885e+00  1.0006301180066357e+00  1.0006301180065973e+00  1.0006301180066410e+00  1.0006301180064006e+00  1.0006301180064521e+00  1.0006301180065453e+00  1.0006301180062627e+00  1.0006301180064276e+00  1.0006301180065875e+00  1.0006301180065449e+00  1.0006301180066439e+00  1.0006301180064945e+00  1.0006301180065633e+00  1.0006301180063633e+00  1.0006301180065467e+00  1.0006301180066313e+00  1.0006301180064803e+00  1.0006301180065229e+00  1.0006301180063926e+00  1.0006301180064632e+00  1.0006301180065174e+00  1.0006301180067627e+00  1.0006301180067403e+00  1.0010195541893012e+00  1.0010195541893956e+00  1.0010195541891556e+00  1.0010195541894300e+00  1.0010195541890849e+00  1.0010195541891058e+00  1.0010195541891838e+00  1.0010195541890177e+00  1.0010195541891318e+00  1.0010195541891176e+00  1.0010195541890936e+00  1.0010195541891918e+00  1.0010195541890818e+00  1.0010195541892284e+00  1.0010195541891473e+00  1.0010195541890805e+00  1.0010195541891318e+00  1.0010195541890305e+00  1.0010195541889957e+00  1.0010195541890523e+00  1.0010195541890694e+00  1.0010195541889308e+00  1.0010195541891611e+00  1.0010195541891882e+00  1.0010195541891500e+00  1.0010195541892355e+00  1.0010195541890006e+00  1.0010195541890929e+00  1.0010195541890121e+00  1.0010195541892710e+00  1.0010195541893012e+00  1.0012327003381134e+00  1.0012327003411072e+00  1.0012327003416521e+00  1.0012327003412167e+00  1.0012327003379005e+00  1.0012327003377208e+00  1.0012327003378469e+00  1.0012327003379151e+00  1.0012327003378927e+00  1.0012327003379504e+00  1.0012327003377681e+00  1.0012327003378425e+00  1.0012327003375869e+00  1.0012327003378296e+00  1.0012327003378363e+00  1.0012327003375818e+00  1.0012327003380128e+00  1.0012327003378911e+00  1.0012327003379875e+00  1.0012327003376849e+00  1.0012327003376615e+00  1.0012327003376169e+00  1.0012327003378454e+00  1.0012327003379831e+00  1.0012327003379042e+00  1.0012327003378614e+00  1.0012327003378678e+00  1.0012327003377135e+00  1.0012327003378345e+00  1.0012327003377144e+00  1.0012327003381134e+00  1.0012327003412467e+00  1.0012327003412083e+00  1.0012327003409485e+00  1.0012327003376851e+00  1.0012327003377759e+00  1.0012327003378911e+00  1.0012327003380712e+00  1.0012327003379724e+00  1.0012327003378652e+00  1.0012327003379111e+00  1.0012327003378689e+00  1.0012327003379471e+00  1.0012327003380652e+00  1.0012327003381145e+00  1.0012327003379227e+00  1.0012327003379307e+00  1.0012327003378325e+00  1.0012327003380754e+00  1.0012327003379478e+00  1.0012327003381072e+00  1.0012327003379746e+00  1.0012327003379686e+00  1.0012327003380106e+00  1.0012327003379602e+00  1.0012327003380075e+00  1.0012327003380199e+00  1.0012327003381132e+00  1.0012327003380084e+00  1.0012327003379533e+00  1.0012327003381618e+00  1.0012327003412467e+00  1.0010195541894347e+00  1.0010195541893296e+00  1.0010195541894902e+00  1.0010195541893117e+00  1.0010195541896052e+00  1.0010195541891780e+00  1.0010195541891789e+00  1.0010195541893094e+00  1.0010195541891433e+00  1.0010195541893956e+00  1.0010195541892311e+00  1.0010195541893041e+00  1.0010195541892359e+00  1.0010195541891658e+00  1.0010195541893725e+00  1.0010195541892881e+00  1.0010195541892397e+00  1.0010195541892097e+00  1.0010195541892668e+00  1.0010195541891080e+00  1.0010195541893838e+00  1.0010195541894533e+00  1.0010195541893123e+00  1.0010195541891160e+00  1.0010195541892417e+00  1.0010195541892100e+00  1.0010195541893263e+00  1.0010195541891977e+00  1.0010195541892488e+00  1.0010195541892912e+00  1.0010195541894347e+00  1.0006301180062789e+00  1.0006301180062978e+00  1.0006301180065815e+00  1.0006301180066288e+00  1.0006301180065742e+00  1.0006301180066688e+00  1.0006301180064918e+00  1.0006301180065598e+00  1.0006301180063750e+00  1.0006301180064372e+00  1.0006301180063824e+00  1.0006301180064665e+00  1.0006301180065833e+00  1.0006301180062760e+00  1.0006301180065829e+00  1.0006301180065136e+00  1.0006301180065413e+00  1.0006301180064385e+00  1.0006301180065409e+00  1.0006301180063777e+00  1.0006301180064121e+00  1.0006301180065920e+00  1.0006301180066270e+00  1.0006301180064552e+00  1.0006301180065047e+00  1.0006301180064923e+00  1.0006301180063921e+00  1.0006301180064574e+00  1.0006301180064243e+00  1.0006301180064918e+00  1.0006301180062789e+00  1.0001317305393305e+00  1.0001317305394635e+00  1.0001317305394408e+00  1.0001317305392994e+00  1.0001317305393411e+00  1.0001317305394981e+00  1.0001317305395550e+00  1.0001317305392785e+00  1.0001317305393609e+00  1.0001317305392232e+00  1.0001317305393851e+00  1.0001317305392678e+00  1.0001317305393223e+00  1.0001317305394333e+00  1.0001317305394364e+00  1.0001317305392825e+00  1.0001317305393251e+00  1.0001317305394553e+00  1.0001317305393480e+00  1.0001317305393365e+00  1.0001317305393154e+00  1.0001317305394335e+00  1.0001317305393231e+00  1.0001317305393491e+0