<?xml version="1.0"?>
<VTKFile type="UnstructuredGrid"  version="0.1"  >
<UnstructuredGrid>
<Piece  NumberOfPoints="961" NumberOfCells="1800">
<Points>
<DataArray  type="Float64"  NumberOfComponents="3"  format="ascii">0 0 0  0.03333333333333333 0 0  0.06666666666666667 0 0  0.1 0 0  0.1333333333333333 0 0  0.1666666666666667 0 0  0.2 0 0  0.2333333333333333 0 0  0.2666666666666667 0 0  0.3 0 0  0.3333333333333333 0 0  0.3666666666666666 0 0  0.4 0 0  0.4333333333333333 0 0  0.4666666666666667 0 0  0.5 0 0  0.5333333333333333 0 0  0.5666666666666667 0 0  0.6 0 0  0.6333333333333333 0 0  0.6666666666666666 0 0  0.7 0 0  0.7333333333333333 0 0  0.7666666666666667 0 0  0.8 0 0  0.8333333333333334 0 0  0.8666666666666667 0 0  0.9 0 0  0.9333333333333333 0 0  0.9666666666666667 0 0  1 0 0  0 0.03333333333333333 0  0.03333333333333333 0.03333333333333333 0  0.06666666666666667 0.03333333333333333 0  0.1 0.03333333333333333 0  0.1333333333333333 0.03333333333333333 0  0.1666666666666667 0.03333333333333333 0  0.2 0.03333333333333333 0  0.2333333333333333 0.03333333333333333 0  0.2666666666666667 0.03333333333333333 0  0.3 0.03333333333333333 0  0.3333333333333333 0.03333333333333333 0  0.3666666666666666 0.03333333333333333 0  0.4 0.03333333333333333 0  0.4333333333333333 0.03333333333333333 0  0.4666666666666667 0.03333333333333333 0  0.5 0.03333333333333333 0  0.5333333333333333 0.03333333333333333 0  0.5666666666666667 0.03333333333333333 0  0.6 0.03333333333333333 0  0.6333333333333333 0.03333333333333333 0  0.6666666666666666 0.03333333333333333 0  0.7 0.03333333333333333 0  0.7333333333333333 0.03333333333333333 0  0.7666666666666667 0.03333333333333333 0  0.8 0.03333333333333333 0  0.8333333333333334 0.03333333333333333 0  0.8666666666666667 0.03333333333333333 0  0.9 0.03333333333333333 0  0.9333333333333333 0.03333333333333333 0  0.9666666666666667 0.03333333333333333 0  1 0.03333333333333333 0  0 0.06666666666666667 0  0.03333333333333333 0.06666666666666667 0  0.06666666666666667 0.06666666666666667 0  0.1 0.06666666666666667 0  0.1333333333333333 0.06666666666666667 0  0.1666666666666667 0.06666666666666667 0  0.2 0.06666666666666667 0  0.2333333333333333 0.06666666666666667 0  0.2666666666666667 0.06666666666666667 0  0.3 0.06666666666666667 0  0.3333333333333333 0.06666666666666667 0  0.3666666666666666 0.06666666666666667 0  0.4 0.06666666666666667 0  0.4333333333333333 0.06666666666666667 0  0.4666666666666667 0.06666666666666667 0  0.5 0.06666666666666667 0  0.5333333333333333 0.06666666666666667 0  0.5666666666666667 0.06666666666666667 0  0.6 0.06666666666666667 0  0.6333333333333333 0.06666666666666667 0  0.6666666666666666 0.06666666666666667 0  0.7 0.06666666666666667 0  0.7333333333333333 0.06666666666666667 0  0.7666666666666667 0.06666666666666667 0  0.8 0.06666666666666667 0  0.8333333333333334 0.06666666666666667 0  0.8666666666666667 0.06666666666666667 0  0.9 0.06666666666666667 0  0.9333333333333333 0.06666666666666667 0  0.9666666666666667 0.06666666666666667 0  1 0.06666666666666667 0  0 0.1 0  0.03333333333333333 0.1 0  0.06666666666666667 0.1 0  0.1 0.1 0  0.1333333333333333 0.1 0  0.1666666666666667 0.1 0  0.2 0.1 0  0.2333333333333333 0.1 0  0.2666666666666667 0.1 0  0.3 0.1 0  0.3333333333333333 0.1 0  0.3666666666666666 0.1 0  0.4 0.1 0  0.4333333333333333 0.1 0  0.4666666666666667 0.1 0  0.5 0.1 0  0.5333333333333333 0.1 0  0.5666666666666667 0.1 0  0.6 0.1 0  0.6333333333333333 0.1 0  0.6666666666666666 0.1 0  0.7 0.1 0  0.7333333333333333 0.1 0  0.7666666666666667 0.1 0  0.8 0.1 0  0.8333333333333334 0.1 0  0.8666666666666667 0.1 0  0.9 0.1 0  0.9333333333333333 0.1 0  0.9666666666666667 0.1 0  1 0.1 0  0 0.1333333333333333 0  0.03333333333333333 0.1333333333333333 0  0.06666666666666667 0.1333333333333333 0  0.1 0.1333333333333333 0  0.1333333333333333 0.1333333333333333 0  0.1666666666666667 0.1333333333333333 0  0.2 0.1333333333333333 0  0.2333333333333333 0.1333333333333333 0  0.2666666666666667 0.1333333333333333 0  0.3 0.1333333333333333 0  0.3333333333333333 0.1333333333333333 0  0.3666666666666666 0.1333333333333333 0  0.4 0.1333333333333333 0  0.4333333333333333 0.1333333333333333 0  0.4666666666666667 0.1333333333333333 0  0.5 0.1333333333333333 0  0.5333333333333333 0.1333333333333333 0  0.5666666666666667 0.1333333333333333 0  0.6 0.1333333333333333 0  0.6333333333333333 0.1333333333333333 0  0.6666666666666666 0.1333333333333333 0  0.7 0.1333333333333333 0  0.7333333333333333 0.1333333333333333 0  0.7666666666666667 0.1333333333333333 0  0.8 0.1333333333333333 0  0.8333333333333334 0.1333333333333333 0  0.8666666666666667 0.1333333333333333 0  0.9 0.1333333333333333 0  0.9333333333333333 0.1333333333333333 0  0.9666666666666667 0.1333333333333333 0  1 0.1333333333333333 0  0 0.1666666666666667 0  0.03333333333333333 0.1666666666666667 0  0.06666666666666667 0.1666666666666667 0  0.1 0.1666666666666667 0  0.1333333333333333 0.1666666666666667 0  0.1666666666666667 0.1666666666666667 0  0.2 0.1666666666666667 0  0.2333333333333333 0.1666666666666667 0  0.2666666666666667 0.1666666666666667 0  0.3 0.1666666666666667 0  0.3333333333333333 0.1666666666666667 0  0.3666666666666666 0.1666666666666667 0  0.4 0.1666666666666667 0  0.4333333333333333 0.1666666666666667 0  0.4666666666666667 0.1666666666666667 0  0.5 0.1666666666666667 0  0.5333333333333333 0.1666666666666667 0  0.5666666666666667 0.1666666666666667 0  0.6 0.1666666666666667 0  0.6333333333333333 0.1666666666666667 0  0.6666666666666666 0.1666666666666667 0  0.7 0.1666666666666667 0  0.7333333333333333 0.1666666666666667 0  0.7666666666666667 0.1666666666666667 0  0.8 0.1666666666666667 0  0.8333333333333334 0.1666666666666667 0  0.8666666666666667 0.1666666666666667 0  0.9 0.1666666666666667 0  0.9333333333333333 0.1666666666666667 0  0.9666666666666667 0.1666666666666667 0  1 0.1666666666666667 0  0 0.2 0  0.03333333333333333 0.2 0  0.06666666666666667 0.2 0  0.1 0.2 0  0.1333333333333333 0.2 0  0.1666666666666667 0.2 0  0.2 0.2 0  0.2333333333333333 0.2 0  0.2666666666666667 0.2 0  0.3 0.2 0  0.3333333333333333 0.2 0  0.3666666666666666 0.2 0  0.4 0.2 0  0.4333333333333333 0.2 0  0.4666666666666667 0.2 0  0.5 0.2 0  0.5333333333333333 0.2 0  0.5666666666666667 0.2 0  0.6 0.2 0  0.6333333333333333 0.2 0  0.6666666666666666 0.2 0  0.7 0.2 0  0.7333333333333333 0.2 0  0.7666666666666667 0.2 0  0.8 0.2 0  0.8333333333333334 0.2 0  0.8666666666666667 0.2 0  0.9 0.2 0  0.9333333333333333 0.2 0  0.9666666666666667 0.2 0  1 0.2 0  0 0.2333333333333333 0  0.03333333333333333 0.2333333333333333 0  0.06666666666666667 0.2333333333333333 0  0.1 0.2333333333333333 0  0.1333333333333333 0.2333333333333333 0  0.1666666666666667 0.2333333333333333 0  0.2 0.2333333333333333 0  0.2333333333333333 0.2333333333333333 0  0.2666666666666667 0.2333333333333333 0  0.3 0.2333333333333333 0  0.3333333333333333 0.2333333333333333 0  0.3666666666666666 0.2333333333333333 0  0.4 0.2333333333333333 0  0.4333333333333333 0.2333333333333333 0  0.4666666666666667 0.2333333333333333 0  0.5 0.2333333333333333 0  0.5333333333333333 0.2333333333333333 0  0.5666666666666667 0.2333333333333333 0  0.6 0.2333333333333333 0  0.6333333333333333 0.2333333333333333 0  0.6666666666666666 0.2333333333333333 0  0.7 0.2333333333333333 0  0.7333333333333333 0.2333333333333333 0  0.7666666666666667 0.2333333333333333 0  0.8 0.2333333333333333 0  0.8333333333333334 0.2333333333333333 0  0.8666666666666667 0.2333333333333333 0  0.9 0.2333333333333333 0  0.9333333333333333 0.2333333333333333 0  0.9666666666666667 0.2333333333333333 0  1 0.2333333333333333 0  0 0.2666666666666667 0  0.03333333333333333 0.2666666666666667 0  0.06666666666666667 0.2666666666666667 0  0.1 0.2666666666666667 0  0.1333333333333333 0.2666666666666667 0  0.1666666666666667 0.2666666666666667 0  0.2 0.2666666666666667 0  0.2333333333333333 0.2666666666666667 0  0.2666666666666667 0.2666666666666667 0  0.3 0.2666666666666667 0  0.3333333333333333 0.2666666666666667 0  0.3666666666666666 0.2666666666666667 0  0.4 0.2666666666666667 0  0.4333333333333333 0.2666666666666667 0  0.4666666666666667 0.2666666666666667 0  0.5 0.2666666666666667 0  0.5333333333333333 0.2666666666666667 0  0.5666666666666667 0.2666666666666667 0  0.6 0.2666666666666667 0  0.6333333333333333 0.2666666666666667 0  0.6666666666666666 0.2666666666666667 0  0.7 0.2666666666666667 0  0.7333333333333333 0.2666666666666667 0  0.7666666666666667 0.2666666666666667 0  0.8 0.2666666666666667 0  0.8333333333333334 0.2666666666666667 0  0.8666666666666667 0.2666666666666667 0  0.9 0.2666666666666667 0  0.9333333333333333 0.2666666666666667 0  0.9666666666666667 0.2666666666666667 0  1 0.2666666666666667 0  0 0.3 0  0.03333333333333333 0.3 0  0.06666666666666667 0.3 0  0.1 0.3 0  0.1333333333333333 0.3 0  0.1666666666666667 0.3 0  0.2 0.3 0  0.2333333333333333 0.3 0  0.2666666666666667 0.3 0  0.3 0.3 0  0.3333333333333333 0.3 0  0.3666666666666666 0.3 0  0.4 0.3 0  0.4333333333333333 0.3 0  0.4666666666666667 0.3 0  0.5 0.3 0  0.5333333333333333 0.3 0  0.5666666666666667 0.3 0  0.6 0.3 0  0.6333333333333333 0.3 0  0.6666666666666666 0.3 0  0.7 0.3 0  0.7333333333333333 0.3 0  0.7666666666666667 0.3 0  0.8 0.3 0  0.8333333333333334 0.3 0  0.8666666666666667 0.3 0  0.9 0.3 0  0.9333333333333333 0.3 0  0.9666666666666667 0.3 0  1 0.3 0  0 0.3333333333333333 0  0.03333333333333333 0.3333333333333333 0  0.06666666666666667 0.3333333333333333 0  0.1 0.3333333333333333 0  0.1333333333333333 0.3333333333333333 0  0.1666666666666667 0.3333333333333333 0  0.2 0.3333333333333333 0  0.2333333333333333 0.3333333333333333 0  0.2666666666666667 0.3333333333333333 0  0.3 0.3333333333333333 0  0.3333333333333333 0.3333333333333333 0  0.3666666666666666 0.3333333333333333 0  0.4 0.3333333333333333 0  0.4333333333333333 0.3333333333333333 0  0.4666666666666667 0.3333333333333333 0  0.5 0.3333333333333333 0  0.5333333333333333 0.33333333333333
[...]
<PointData  Vectors="u_f"> 
<DataArray  type="Float64"  Name="u_f"  NumberOfComponents="3" format="ascii">2.7096161320974265e-06 3.1698076254191472e-09 0.0000000000000000e+00  2.7096161217104986e-06 3.1698053648576176e-09 0.0000000000000000e+00  2.7096161309094120e-06 3.1698125571837793e-09 0.0000000000000000e+00  2.7096161229161315e-06 3.1698016186680611e-09 0.0000000000000000e+00  2.7096161140189516e-06 3.1697960093312813e-09 0.0000000000000000e+00  2.7096161272103852e-06 3.1698094601602736e-09 0.0000000000000000e+00  2.7096161253831793e-06 3.1698043970987584e-09 0.0000000000000000e+00  2.7096161196118627e-06 3.1698047009464173e-09 0.0000000000000000e+00  2.7096161236517084e-06 3.1698030971945637e-09 0.0000000000000000e+00  2.7096161310764333e-06 3.1698140365776437e-09 0.0000000000000000e+00  2.7096161214565243e-06 3.1698300454732417e-09 0.0000000000000000e+00  2.7096161143159688e-06 3.1697421480104959e-09 0.0000000000000000e+00  2.7096160870366832e-06 3.1697820340736982e-09 0.0000000000000000e+00  2.7096161194518345e-06 3.1697920708584695e-09 0.0000000000000000e+00  2.7096161185660413e-06 3.1698079019449113e-09 0.0000000000000000e+00  2.7096161220574976e-06 3.1697957388228393e-09 0.0000000000000000e+00  2.7096161213115665e-06 3.1698063332669980e-09 0.0000000000000000e+00  2.7096161238360228e-06 3.1697980271399445e-09 0.0000000000000000e+00  2.7096161268750957e-06 3.1697937342956527e-09 0.0000000000000000e+00  2.7096161226042607e-06 3.1698250916450954e-09 0.0000000000000000e+00  2.7096161278938121e-06 3.1698120811648155e-09 0.0000000000000000e+00  2.7096161168331610e-06 3.1698203945018134e-09 0.0000000000000000e+00  2.7096161679496071e-06 3.1698486468046544e-09 0.0000000000000000e+00  2.7096161620730145e-06 3.1698028777520440e-09 0.0000000000000000e+00  2.7096161193605989e-06 3.1697980049680101e-09 0.0000000000000000e+00  2.7096161221340964e-06 3.1698028576943038e-09 0.0000000000000000e+00  2.7096161193143576e-06 3.1698067993655120e-09 0.0000000000000000e+00  2.7096161405032460e-06 3.1698096091838622e-09 0.0000000000000000e+00  2.7096161229224198e-06 3.1698104461879394e-09 0.0000000000000000e+00  2.7096161367641037e-06 3.1698018668961485e-09 0.0000000000000000e+00  2.7096161320975349e-06 -7.7053557092333118e-10 0.0000000000000000e+00  4.1705323553669683e-04 6.0856055617963117e-09 0.0000000000000000e+00  4.1705323552571278e-04 6.0855887564457978e-09 0.0000000000000000e+00  4.1705323552306288e-04 6.0855884763963766e-09 0.0000000000000000e+00  4.1705323552177582e-04 6.0855833366275577e-09 0.0000000000000000e+00  4.1705323552447353e-04 6.0855931664381344e-09 0.0000000000000000e+00  4.1705323552525123e-04 6.0855840956774987e-09 0.0000000000000000e+00  4.1705323553365835e-04 6.0856288051393259e-09 0.0000000000000000e+00  4.1705323553209851e-04 6.0856097171095580e-09 0.0000000000000000e+00  4.1705323553696951e-04 6.0856148664193560e-09 0.0000000000000000e+00  4.1705323553406829e-04 6.0856061366403036e-09 0.0000000000000000e+00  4.1705323554235756e-04 6.0856111713499320e-09 0.0000000000000000e+00  4.1705323548545136e-04 6.0855589016379358e-09 0.0000000000000000e+00  4.1705323549702435e-04 6.0855869747763677e-09 0.0000000000000000e+00  4.1705323554560539e-04 6.0856169942745397e-09 0.0000000000000000e+00  4.1705323553676774e-04 6.0855959956637035e-09 0.0000000000000000e+00  4.1705323553300024e-04 6.0856013685359894e-09 0.0000000000000000e+00  4.1705323551632478e-04 6.0855993434631717e-09 0.0000000000000000e+00  4.1705323553274166e-04 6.0856049295980250e-09 0.0000000000000000e+00  4.1705323551743077e-04 6.0855999591815854e-09 0.0000000000000000e+00  4.1705323553250628e-04 6.0855996202599863e-09 0.0000000000000000e+00  4.1705323553629611e-04 6.0855933869648562e-09 0.0000000000000000e+00  4.1705323553834774e-04 6.0856016509706554e-09 0.0000000000000000e+00  4.1705323556480390e-04 6.0856567028538464e-09 0.0000000000000000e+00  4.1705323556422863e-04 6.0856118566741252e-09 0.0000000000000000e+00  4.1705323552745997e-04 6.0855979196888788e-09 0.0000000000000000e+00  4.1705323552610840e-04 6.0856129814254589e-09 0.0000000000000000e+00  4.1705323553848034e-04 6.0856141237408679e-09 0.0000000000000000e+00  4.1705323552330151e-04 6.0856199231382885e-09 0.0000000000000000e+00  4.1705323554606802e-04 6.0856200175722977e-09 0.0000000000000000e+00  4.1705323553367201e-04 6.0856081407880194e-09 0.0000000000000000e+00  4.1705323553669705e-04 -2.3528924188607462e-09 0.0000000000000000e+00  7.5928453666989574e-04 7.8404776214209895e-09 0.0000000000000000e+00  7.5928453668011923e-04 7.8404580698947929e-09 0.0000000000000000e+00  7.5928453666599348e-04 7.8404752917957815e-09 0.0000000000000000e+00  7.5928453666919264e-04 7.8404765025243475e-09 0.0000000000000000e+00  7.5928453665992021e-04 7.8404747760408081e-09 0.0000000000000000e+00  7.5928453667032693e-04 7.8404708264007139e-09 0.0000000000000000e+00  7.5928453665396079e-04 7.8404403329977723e-09 0.0000000000000000e+00  7.5928453668021138e-04 7.8404744547917044e-09 0.0000000000000000e+00  7.5928453666818465e-04 7.8404511726342524e-09 0.0000000000000000e+00  7.5928453667474798e-04 7.8404775536583537e-09 0.0000000000000000e+00  7.5928453667853759e-04 7.8404716725120893e-09 0.0000000000000000e+00  7.5928453662226110e-04 7.8404017359425329e-09 0.0000000000000000e+00  7.5928453665019427e-04 7.8404787343545196e-09 0.0000000000000000e+00  7.5928453666507299e-04 7.8404695415127193e-09 0.0000000000000000e+00  7.5928453667968652e-04 7.8404839285502875e-09 0.0000000000000000e+00  7.5928453667995844e-04 7.8404747066518690e-09 0.0000000000000000e+00  7.5928453665806016e-04 7.8404441982869374e-09 0.0000000000000000e+00  7.5928453666458456e-04 7.8404666864831385e-09 0.0000000000000000e+00  7.5928453666707432e-04 7.8404760164765136e-09 0.0000000000000000e+00  7.5928453666034739e-04 7.8404466286345273e-09 0.0000000000000000e+00  7.5928453666764309e-04 7.8404674488941062e-09 0.0000000000000000e+00  7.5928453666923405e-04 7.8404489329978247e-09 0.0000000000000000e+00  7.5928453670886381e-04 7.8405164300040728e-09 0.0000000000000000e+00  7.5928453669364595e-04 7.8404755345486479e-09 0.0000000000000000e+00  7.5928453666850688e-04 7.8404712924992279e-09 0.0000000000000000e+00  7.5928453667502337e-04 7.8404792169329066e-09 0.0000000000000000e+00  7.5928453667104532e-04 7.8404751239612852e-09 0.0000000000000000e+00  7.5928453668162822e-04 7.8404704255711707e-09 0.0000000000000000e+00  7.5928453665863966e-04 7.8404440286092975e-09 0.0000000000000000e+00  7.5928453666848791e-04 7.8404626412164127e-09 0.0000000000000000e+00  7.5928453666989618e-04 -3.4666123124937444e-09 0.0000000000000000e+00  9.7022869700885066e-04 8.3466589325884022e-09 0.0000000000000000e+00  9.7022869701744448e-04 8.3466615305536479e-09 0.0000000000000000e+00  9.7022869701034729e-04 8.3466404710106495e-09 0.0000000000000000e+00  9.7022869700871340e-04 8.3466649449231295e-09 0.0000000000000000e+00  9.7022869702174399e-04 8.3466794396219735e-09 0.0000000000000000e+00  9.7022869701310290e-04 8.3466718491225639e-09 0.0000000000000000e+00  9.7022869701985878e-04 8.3466751886820956e-09 0.0000000000000000e+00  9.7022869700918134e-04 8.3466519234381975e-09 0.0000000000000000e+00  9.7022869700710184e-04 8.3466760733910683e-09 0.0000000000000000e+00  9.7022869702026600e-04 8.3466784911619130e-09 0.0000000000000000e+00  9.7022869703191142e-04 8.3466848580307507e-09 0.0000000000000000e+00  9.7022869700471161e-04 8.3466913305008800e-09 0.0000000000000000e+00  9.7022869702802759e-04 8.3466723489397654e-09 0.0000000000000000e+00  9.7022869702029875e-04 8.3466595141544475e-09 0.0000000000000000e+00  9.7022869701653223e-04 8.3466576779496482e-09 0.0000000000000000e+00  9.7022869701966752e-04 8.3466628933957787e-09 0.0000000000000000e+00  9.7022869701772355e-04 8.3466712803501042e-09 0.0000000000000000e+00  9.7022869701608987e-04 8.3466797453669861e-09 0.0000000000000000e+00  9.7022869702024627e-04 8.3466632986705508e-09 0.0000000000000000e+00  9.7022869700703071e-04 8.3466484841320659e-09 0.0000000000000000e+00  9.7022869701582858e-04 8.3466765304907042e-09 0.0000000000000000e+00  9.7022869701831596e-04 8.3466768099980243e-09 0.0000000000000000e+00  9.7022869703172147e-04 8.3466329878472550e-09 0.0000000000000000e+00  9.7022869701078899e-04 8.3466640994622754e-09 0.0000000000000000e+00  9.7022869701460126e-04 8.3466846995203930e-09 0.0000000000000000e+00  9.7022869703848992e-04 8.3466688820948987e-09 0.0000000000000000e+00  9.7022869701473289e-04 8.3466763331659088e-09 0.0000000000000000e+00  9.7022869701247796e-04 8.3466509418015505e-09 0.0000000000000000e+00  9.7022869702213343e-04 8.3466716491956833e-09 0.0000000000000000e+00  9.7022869701404984e-04 8.3466499584301801e-09 0.0000000000000000e+00  9.7022869700885066e-04 -3.9865494847865056e-09 0.0000000000000000e+00  1.0134115870303155e-03 7.6281081862325170e-09 0.0000000000000000e+00  1.0134115870279697e-03 7.6281099359179830e-09 0.0000000000000000e+00  1.0134115870232907e-03 7.6281010895871970e-09 0.0000000000000000e+00  1.0134115870239846e-03 7.6281131138229707e-09 0.0000000000000000e+00  1.0134115870413228e-03 7.6281276630571840e-09 0.0000000000000000e+00  1.0134115870394545e-03 7.6281042940551380e-09 0.0000000000000000e+00  1.0134115870261465e-03 7.6281076927036881e-09 0.0000000000000000e+00  1.0134115870187275e-03 7.6281114323338214e-09 0.0000000000000000e+00  1.0134115870286797e-03 7.6280999382729101e-09 0.0000000000000000e+00  1.0134115870335855e-03 7.6281123350405503e-09 0.0000000000000000e+00  1.0134115870267220e-03 7.6281030325859103e-09 0.0000000000000000e+00  1.0134115870429577e-03 7.6280945913130560e-09 0.0000000000000000e+00  1.0134115870165429e-03 7.6280871506503867e-09 0.0000000000000000e+00  1.0134115870352556e-03 7.6281156170289466e-09 0.0000000000000000e+00  1.0134115870289099e-03 7.6281104448424827e-09 0.0000000000000000e+00  1.0134115870462307e-03 7.6281191939203338e-09 0.0000000000000000e+00  1.0134115870190255e-03 7.6281085133363125e-09 0.0000000000000000e+00  1.0134115870363016e-03 7.6281321260670068e-09 0.0000000000000000e+00  1.0134115870444149e-03 7.6281301939103152e-09 0.0000000000000000e+00  1.0134115870378642e-03 7.6281169146021066e-09 0.0000000000000000e+00  1.0134115870223553e-03 7.6281210487734105e-09 0.0000000000000000e+00  1.0134115870502637e-03 7.6281292771089582e-09 0.0000000000000000e+00  1.0134115870381994e-03 7.6281113697753561e-09 0.0000000000000000e+00  1.0134115870239668e-03 7.6281141619212109e-09 0.0000000000000000e+00  1.0134115870329323e-03 7.6281055808946965e-09 0.0000000000000000e+00  1.0134115870273136e-03 7.6281177619061044e-09 0.0000000000000000e+00  1.0134115870242349e-03 7.6281226899302390e-09 0.0000000000000000e+00  1.0134115870336384e-03 7.6281118037814857e-09 0.0000000000000000e+00  1.0134115870212334e-03 7.6281128909110041e-09 0.0000000000000000e+00  1.0134115870376551e-03 7.6281129584567994e-09 0.0000000000000000e+00  1.0134115870303162e-03 -3.8748992791075520e-09 0.0000000000000000e+00  8.8136645718157468e-04 5.7425651747928033e-09 0.0000000000000000e+00  8.8136645718755275e-04 5.7425610475603933e-09 0.0000000000000000e+00  8.8136645717834994e-04 5.7425671918425250e-09 0.0000000000000000e+00  8.8136645718408428e-04 5.7425772431556055e-09 0.0000000000000000e+00  8.8136645717998708e-04 5.7425644134660378e-09 0.0000000000000000e+00  8.8136645718566115e-04 5.7425667241177078e-09 0.0000000000000000e+00  8.8136645717089616e-04 5.7425753261777443e-09 0.0000000000000000e+00  8.8136645717977805e-04 5.7425575146876143e-09 0.0000000000000000e+00  8.8136645717918076e-04 5.7425746393356680e-09 0.0000000000000000e+00  8.8136645718210637e-04 5.7425673203204824e-09 0.0000000000000000e+00  8.8136645716499831e-04 5.7425587589180274e-09 0.0000000000000000e+00  8.8136645718209401e-04 5.7425755224183375e-09 0.0000000000000000e+00  8.8136645718450430e-04 5.7425858925952769e-09 0.0000000000000000e+00  8.8136645719320405e-04 5.7425968983315298e-09 0.0000000000000000e+00  8.8136645718548063e-04 5.7425982358033298e-09 0.0000000000000000e+00  8.8136645719989531e-04 5.7425811898683538e-09 0.0000000000000000e+00  8.8136645717032988e-04 5.7425777327813066e-09 0.0000000000000000e+00  8.8136645718563437e-04 5.7425799597325689e-09 0.0000000000000000e+00  8.8136645719077273e-04 5.7425578765942994e-09 0.0000000000000000e+00  8.8136645717875294e-04 5.7425563400629806e-09 0.0000000000000000e+00  8.8136645718036471e-04 5.7425641431744362e-09 0.0000000000000000e+00  8.8136645717626653e-04 5.7425671112863036e-09 0.0000000000000000e+00  8.8136645718518193e-04 5.7425801393848688e-09 0.0000000000000000e+00  8.8136645718468601e-04 5.7425561787336973e-09 0.0000000000000000e+00  8.8136645718180431e-04 5.7425715300606778e-09 0.0000000000000000e+00  8.8136645718331992e-04 5.7425679256305553e-09 0.0000000000000000e+00  8.8136645717679150e-04 5.7425649784437899e-09 0.0000000000000000e+00  8.8136645717367442e-04 5.7425868623057000e-09 0.0000000000000000e+00  8.8136645719370625e-04 5.7425699482097081e-09 0.0000000000000000e+00  8.8136645718392241e-04 5.7425819603024175e-09 0.0000000000000000e+00  8.8136645718157511e-04 -3.1532456990637588e-09 0.0000000000000000e+00  5.9692503012962546e-04 2.8159196327785449e-09 0.0000000000000000e+00  5.9692503012316340e-04 2.8159177700107924e-09 0.0000000000000000e+00  5.9692503013425891e-04 2.8159181609198856e-09 0.0000000000000000e+00  5.9692503013932430e-04 2.8159080046560349e-09 0.0000000000000000e+00  5.9692503013324735e-04 2.8159150848214819e-09 0.0000000000000000e+00  5.9692503012291035e-04 2.8159008370496827e-09 0.0000000000000000e+00  5.9692503012300304e-04 2.8159038062457523e-09 0.0000000000000000e+00  5.9692503010882005e-04 2.8159156745190435e-09 0.0000000000000000e+00  5.9692503014442417e-04 2.8159176543806307e-09 0.0000000000000000e+00  5.9692503012272278e-04 2.8159097471857665e-09 0.0000000000000000e+00  5.9692503011562364e-04 2.8159177342321207e-09 0.0000000000000000e+00  5.9692503012952832e-04 2.8159250299369595e-09 0.0000000000000000e+00  5.9692503013290322e-04 2.8159067302848013e-09 0.0000000000000000e+00  5.9692503012922474e-04 2.8158941302292538e-09 0.0000000000000000e+00  5.9692503013143976e-04 2.8158971238198723e-09 0.0000000000000000e+00  5.9692503012904780e-04 2.8159085435045146e-09 0.0000000000000000e+00  5.9692503012459888e-04 2.8158865458013764e-09 0.0000000000000000e+00  5.9692503012243395e-04 2.8159040423307753e-09 0.0000000000000000e+00  5.9692503012705579e-04 2.8159092340870884e-09 0.0000000000000000e+00  5.9692503011632338e-04 2.8159093116075437e-09 0.0000000000000000e+00  5.9692503014635015e-04 2.8159155520041980e-09 0.0000000000000000e+00  5.9692503012149351e-04 2.8158949999762366e-09 0.0000000000000000e+00  5.9692503012998455e-04 2.8159152163352054e-09 0.0000000000000000e+00  5.9692503012444742e-04 2.8158995503185444e-09 0.0000000000000000e+00  5.9692503012479046e-04 2.8159166954580192e-09 0.0000000000000000e+00  5.9692503012430962e-04 2.8158965738041102e-09 0.0000000000000000e+00  5.9692503013519349e-04 2.8159149974347868e-09 0.0000000000000000e+00  5.9692503012208787e-04 2.8159068078594668e-09 0.0000000000000000e+00  5.9692503012597712e-04 2.8159221070905328e-09 0.0000000000000000e+00  5.9692503012451800e-04 2.8159129165255571e-09 0.0000000000000000e+00  5.9692503012962546e-04 -1.8980208197537624e-09 0.0000000000000000e+00  2.0926974110995931e-04 -8.4734411510739484e-10 0.0000000000000000e+00  2.0926974111211571e-04 -8.4734599763473199e-10 0.0000000000000000e+00  2.0926974113290894e-04 -8.4733670294569012e-10 0.0000000000000000e+00  2.0926974110081092e-04 -8.4733847768977879e-10 0.0000000000000000e+00  2.0926974111237464e-04 -8.4734726255985410e-10 0.0000000000000000e+00  2.0926974112053418e-04 -8.4734031594100971e-10 0.0000000000000000e+00  2.0926974110889438e-04 -8.4735204429801057e-10 0.0000000000000000e+00  2.0926974110608052e-04 -8.4737109809409489e-10 0.0000000000000000e+00  2.0926974110529724e-04 -8.4736350417944847e-10 0.0000000000000000e+00  2.0926974110748131e-04 -8.4736124796828006e-10 0.0000000000000000e+00  2.0926974111543811e-04 -8.4735629286619620e-10 0.0000000000000000e+00  2.0926974109773265e-04 -8.4734976748700088e-10 0.0000000000000000e+00  2.0926974112353696e-04 -8.4732904208155956e-10 0.0000000000000000e+00  2.0926974111792142e-04 -8.4732984757601108e-10 0.0000000000000000e+00  2.0926974112200414e-04 -8.4732337846690851e-10 0.0000000000000000e+00  2.0926974111523791e-04 -8.4733473440046312e-10 0.0000000000000000e+00  2.0926974111694233e-04 -8.4734106402695620e-10 0.0000000000000000e+00  2.0926974111459021e-04 -8.4734627311695149e-10 0.0000000000000000e+00  2.0926974111703874e-04 -8.4734193476327345e-10 0.0000000000000000e+00  2.0926974111991706e-04 -8.4735289370265008e-10 0.0000000000000000e+00  2.0926974111080455e-04 -8.4733691757706269e-10 0.0000000000000000e+00  2.0926974113814710e-04 -8.4733720138053387e-10 0.0000000000000000e+00  2.0926974110264680e-04 -8.4736367118724062e-10 0.0000000000000000e+00  2.0926974110573146e-04 -8.4734779705797261e-10 0.0000000000000000e+00  2.0926974111700993e-04 -8.4733764616092260e-10 0.0000000000000000e+00  2.0926974111653697e-04 -8.4734992752879407e-10 0.0000000000000000e+00  2.0926974112066724e-04 -8.4735079199029124e-10 0.0000000000000000e+00  2.0926974111023692e-04 -8.4734096113617003e-10 0.0000000000000000e+00  2.0926974111238873e-04 -8.4733399413432480e-10 0.0000000000000000e+00  2.0926974112209419e-04 -8.4734222862271977e-10 0.0000000000000000e+00  2.0926974110995931e-04 -2.5966113491400930e-10 0.0000000000000000e+00  -2.1457030435464438e-04 -4.6833521450068485e-09 0.0000000000000000e+00  -2.1457030435877535e-04 -4.6833554028717465e-09 0.0000000000000000e+00  -2.1457030434042577e-04 -4.6833574193793671e-09 0.0000000000000000e+00  -2.1457030435513867e-04 -4.6833760930270647e-09 0.0000000000000000e+00  -2.1457030435507736e-04 -4.6833497945107487e-09 0.0000000000000000e+00  -2.1457030434215508e-04 -4.6833640515524765e-09 0.0000000000000000e+00  -2.1457030435829917e-04 -4.6833476218238052e-09 0.0000000000000000e+00  -2.1457030436145881e-04 -4.6833699737900032e-09 0.0000000000000000e+00  -2.1457030436516938e-04 -4.6833530192532703e-09 0.0000000000000000e+00  -2.1457030434630085e-04 -4.6833597187553345e-09 0.0000000000000000e+00  -2.1457030435878088e-04 -4.6833632124884152e-09 0.0000000000000000e+00  -2.1457030435335434e-04 -4.6833670666645080e-09 0.0000000000000000e+00  -2.1457030435564813e-04 -4.6833828415892773e-09 0.0000000000000000e+00  -2.1457030434653097e-04 -4.6833673991351042e-09 0.0000000000000000e+00  -2.1457030434885734e-04 -4.6833627773980833e-09 0.0000000000000000e+00  -2.1457030435359704e-04 -4.6833588280290397e-09 0.0000000000000000e+00  -2.1457030434371448e-04 -4.6833636354898928e-09 0.0000000000000000e+00  -2.1457030435450815e-04 -4.6833580426871961e-09 0.0000000000000000e+00  -2.1457030435527213e-04 -4.6833471201634599e-09 0.0000000000000000e+00  -2.1457030435383654e-04 -4.6833497475647946e-09 0.0000000000000000e+00  -2.1457030434646456e-04 -4.6833515196390355e-09 0.0000000000000000e+00  -2.1457030433703623e-04 -4.6833570444622559e-09 0.0000000000000000e+00  -2.1457030436687933e-04 -4.6833642123396586e-09 0.0000000000000000e+00  -2.1457030434752339e-04 -4.6833735491635074e-09 0.0000000000000000e+00  -2.1457030436047831e-04 -4.6833768712673841e-09 0.0000000000000000e+00  -2.1457030434759452e-04 -4.6833744019427262e-09 0.0000000000000000e+00  -2.1457030436993402e-04 -4.6833580069627345e-09 0.0000000000000000e+00  -2.1457030435253317e-04 -4.6833481619191174e-09 0.0000000000000000e+00  -2.1457030434532252e-04 -4.6833574045257974e-09 0.0000000000000000e+00  -2.1457030435087873e-04 -4.6833723273218691e-09 0.0000000000000000e+00  -2.1457030435464454e-04 1.5197204899527367e-09 0.0000000000000000e+00  -6.0130926119097256e-04 -7.9206555603618736e-09 0.0000000000000000e+00  -6.0130926119370248e-04 -7.9206419900538019e-09 0.0000000000000000e+00  -6.0130926118019744e-04 -7.9206474227740478e-09 0.0000000000000000e+00  -6.0130926119910777e-04 -7.9206281256016808e-09 0