<?xml version="1.0"?>
<VTKFile type="UnstructuredGrid"  version="0.1"  >
<UnstructuredGrid>
<Piece  NumberOfPoints="961" NumberOfCells="1800">
<Points>
<DataArray  type="Float64"  NumberOfComponents="3"  format="ascii">0 0 0  0.03333333333333333 0 0  0.06666666666666667 0 0  0.1 0 0  0.1333333333333333 0 0  0.1666666666666667 0 0  0.2 0 0  0.2333333333333333 0 0  0.2666666666666667 0 0  0.3 0 0  0.3333333333333333 0 0  0.3666666666666666 0 0  0.4 0 0  0.4333333333333333 0 0  0.4666666666666667 0 0  0.5 0 0  0.5333333333333333 0 0  0.5666666666666667 0 0  0.6 0 0  0.6333333333333333 0 0  0.6666666666666666 0 0  0.7 0 0  0.7333333333333333 0 0  0.7666666666666667 0 0  0.8 0 0  0.8333333333333334 0 0  0.8666666666666667 0 0  0.9 0 0  0.9333333333333333 0 0  0.9666666666666667 0 0  1 0 0  0 0.03333333333333333 0  0.03333333333333333 0.03333333333333333 0  0.06666666666666667 0.03333333333333333 0  0.1 0.03333333333333333 0  0.1333333333333333 0.03333333333333333 0  0.1666666666666667 0.03333333333333333 0  0.2 0.03333333333333333 0  0.2333333333333333 0.03333333333333333 0  0.2666666666666667 0.03333333333333333 0  0.3 0.03333333333333333 0  0.3333333333333333 0.03333333333333333 0  0.3666666666666666 0.03333333333333333 0  0.4 0.03333333333333333 0  0.4333333333333333 0.03333333333333333 0  0.4666666666666667 0.03333333333333333 0  0.5 0.03333333333333333 0  0.5333333333333333 0.03333333333333333 0  0.5666666666666667 0.03333333333333333 0  0.6 0.03333333333333333 0  0.6333333333333333 0.03333333333333333 0  0.6666666666666666 0.03333333333333333 0  0.7 0.03333333333333333 0  0.7333333333333333 0.03333333333333333 0  0.7666666666666667 0.03333333333333333 0  0.8 0.03333333333333333 0  0.8333333333333334 0.03333333333333333 0  0.8666666666666667 0.03333333333333333 0  0.9 0.03333333333333333 0  0.9333333333333333 0.03333333333333333 0  0.9666666666666667 0.03333333333333333 0  1 0.03333333333333333 0  0 0.06666666666666667 0  0.03333333333333333 0.06666666666666667 0  0.06666666666666667 0.06666666666666667 0  0.1 0.06666666666666667 0  0.1333333333333333 0.06666666666666667 0  0.1666666666666667 0.06666666666666667 0  0.2 0.06666666666666667 0  0.2333333333333333 0.06666666666666667 0  0.2666666666666667 0.06666666666666667 0  0.3 0.06666666666666667 0  0.3333333333333333 0.06666666666666667 0  0.3666666666666666 0.06666666666666667 0  0.4 0.06666666666666667 0  0.4333333333333333 0.06666666666666667 0  0.4666666666666667 0.06666666666666667 0  0.5 0.06666666666666667 0  0.5333333333333333 0.06666666666666667 0  0.5666666666666667 0.06666666666666667 0  0.6 0.06666666666666667 0  0.6333333333333333 0.06666666666666667 0  0.6666666666666666 0.06666666666666667 0  0.7 0.06666666666666667 0  0.7333333333333333 0.06666666666666667 0  0.7666666666666667 0.06666666666666667 0  0.8 0.06666666666666667 0  0.8333333333333334 0.06666666666666667 0  0.8666666666666667 0.06666666666666667 0  0.9 0.06666666666666667 0  0.9333333333333333 0.06666666666666667 0  0.9666666666666667 0.06666666666666667 0  1 0.06666666666666667 0  0 0.1 0  0.03333333333333333 0.1 0  0.06666666666666667 0.1 0  0.1 0.1 0  0.1333333333333333 0.1 0  0.1666666666666667 0.1 0  0.2 0.1 0  0.2333333333333333 0.1 0  0.2666666666666667 0.1 0  0.3 0.1 0  0.3333333333333333 0.1 0  0.3666666666666666 0.1 0  0.4 0.1 0  0.4333333333333333 0.1 0  0.4666666666666667 0.1 0  0.5 0.1 0  0.5333333333333333 0.1 0  0.5666666666666667 0.1 0  0.6 0.1 0  0.6333333333333333 0.1 0  0.6666666666666666 0.1 0  0.7 0.1 0  0.7333333333333333 0.1 0  0.7666666666666667 0.1 0  0.8 0.1 0  0.8333333333333334 0.1 0  0.8666666666666667 0.1 0  0.9 0.1 0  0.9333333333333333 0.1 0  0.9666666666666667 0.1 0  1 0.1 0  0 0.1333333333333333 0  0.03333333333333333 0.1333333333333333 0  0.06666666666666667 0.1333333333333333 0  0.1 0.1333333333333333 0  0.1333333333333333 0.1333333333333333 0  0.1666666666666667 0.1333333333333333 0  0.2 0.1333333333333333 0  0.2333333333333333 0.1333333333333333 0  0.2666666666666667 0.1333333333333333 0  0.3 0.1333333333333333 0  0.3333333333333333 0.1333333333333333 0  0.3666666666666666 0.1333333333333333 0  0.4 0.1333333333333333 0  0.4333333333333333 0.1333333333333333 0  0.4666666666666667 0.1333333333333333 0  0.5 0.1333333333333333 0  0.5333333333333333 0.1333333333333333 0  0.5666666666666667 0.1333333333333333 0  0.6 0.1333333333333333 0  0.6333333333333333 0.1333333333333333 0  0.6666666666666666 0.1333333333333333 0  0.7 0.1333333333333333 0  0.7333333333333333 0.1333333333333333 0  0.7666666666666667 0.1333333333333333 0  0.8 0.1333333333333333 0  0.8333333333333334 0.1333333333333333 0  0.8666666666666667 0.1333333333333333 0  0.9 0.1333333333333333 0  0.9333333333333333 0.1333333333333333 0  0.9666666666666667 0.1333333333333333 0  1 0.1333333333333333 0  0 0.1666666666666667 0  0.03333333333333333 0.1666666666666667 0  0.06666666666666667 0.1666666666666667 0  0.1 0.1666666666666667 0  0.1333333333333333 0.1666666666666667 0  0.1666666666666667 0.1666666666666667 0  0.2 0.1666666666666667 0  0.2333333333333333 0.1666666666666667 0  0.2666666666666667 0.1666666666666667 0  0.3 0.1666666666666667 0  0.3333333333333333 0.1666666666666667 0  0.3666666666666666 0.1666666666666667 0  0.4 0.1666666666666667 0  0.4333333333333333 0.1666666666666667 0  0.4666666666666667 0.1666666666666667 0  0.5 0.1666666666666667 0  0.5333333333333333 0.1666666666666667 0  0.5666666666666667 0.1666666666666667 0  0.6 0.1666666666666667 0  0.6333333333333333 0.1666666666666667 0  0.6666666666666666 0.1666666666666667 0  0.7 0.1666666666666667 0  0.7333333333333333 0.1666666666666667 0  0.7666666666666667 0.1666666666666667 0  0.8 0.1666666666666667 0  0.8333333333333334 0.1666666666666667 0  0.8666666666666667 0.1666666666666667 0  0.9 0.1666666666666667 0  0.9333333333333333 0.1666666666666667 0  0.9666666666666667 0.1666666666666667 0  1 0.1666666666666667 0  0 0.2 0  0.03333333333333333 0.2 0  0.06666666666666667 0.2 0  0.1 0.2 0  0.1333333333333333 0.2 0  0.1666666666666667 0.2 0  0.2 0.2 0  0.2333333333333333 0.2 0  0.2666666666666667 0.2 0  0.3 0.2 0  0.3333333333333333 0.2 0  0.3666666666666666 0.2 0  0.4 0.2 0  0.4333333333333333 0.2 0  0.4666666666666667 0.2 0  0.5 0.2 0  0.5333333333333333 0.2 0  0.5666666666666667 0.2 0  0.6 0.2 0  0.6333333333333333 0.2 0  0.6666666666666666 0.2 0  0.7 0.2 0  0.7333333333333333 0.2 0  0.7666666666666667 0.2 0  0.8 0.2 0  0.8333333333333334 0.2 0  0.8666666666666667 0.2 0  0.9 0.2 0  0.9333333333333333 0.2 0  0.9666666666666667 0.2 0  1 0.2 0  0 0.2333333333333333 0  0.03333333333333333 0.2333333333333333 0  0.06666666666666667 0.2333333333333333 0  0.1 0.2333333333333333 0  0.1333333333333333 0.2333333333333333 0  0.1666666666666667 0.2333333333333333 0  0.2 0.2333333333333333 0  0.2333333333333333 0.2333333333333333 0  0.2666666666666667 0.2333333333333333 0  0.3 0.2333333333333333 0  0.3333333333333333 0.2333333333333333 0  0.3666666666666666 0.2333333333333333 0  0.4 0.2333333333333333 0  0.4333333333333333 0.2333333333333333 0  0.4666666666666667 0.2333333333333333 0  0.5 0.2333333333333333 0  0.5333333333333333 0.2333333333333333 0  0.5666666666666667 0.2333333333333333 0  0.6 0.2333333333333333 0  0.6333333333333333 0.2333333333333333 0  0.6666666666666666 0.2333333333333333 0  0.7 0.2333333333333333 0  0.7333333333333333 0.2333333333333333 0  0.7666666666666667 0.2333333333333333 0  0.8 0.2333333333333333 0  0.8333333333333334 0.2333333333333333 0  0.8666666666666667 0.2333333333333333 0  0.9 0.2333333333333333 0  0.9333333333333333 0.2333333333333333 0  0.9666666666666667 0.2333333333333333 0  1 0.2333333333333333 0  0 0.2666666666666667 0  0.03333333333333333 0.2666666666666667 0  0.06666666666666667 0.2666666666666667 0  0.1 0.2666666666666667 0  0.1333333333333333 0.2666666666666667 0  0.1666666666666667 0.2666666666666667 0  0.2 0.2666666666666667 0  0.2333333333333333 0.2666666666666667 0  0.2666666666666667 0.2666666666666667 0  0.3 0.2666666666666667 0  0.3333333333333333 0.2666666666666667 0  0.3666666666666666 0.2666666666666667 0  0.4 0.2666666666666667 0  0.4333333333333333 0.2666666666666667 0  0.4666666666666667 0.2666666666666667 0  0.5 0.2666666666666667 0  0.5333333333333333 0.2666666666666667 0  0.5666666666666667 0.2666666666666667 0  0.6 0.2666666666666667 0  0.6333333333333333 0.2666666666666667 0  0.6666666666666666 0.2666666666666667 0  0.7 0.2666666666666667 0  0.7333333333333333 0.2666666666666667 0  0.7666666666666667 0.2666666666666667 0  0.8 0.2666666666666667 0  0.8333333333333334 0.2666666666666667 0  0.8666666666666667 0.2666666666666667 0  0.9 0.2666666666666667 0  0.9333333333333333 0.2666666666666667 0  0.9666666666666667 0.2666666666666667 0  1 0.2666666666666667 0  0 0.3 0  0.03333333333333333 0.3 0  0.06666666666666667 0.3 0  0.1 0.3 0  0.1333333333333333 0.3 0  0.1666666666666667 0.3 0  0.2 0.3 0  0.2333333333333333 0.3 0  0.2666666666666667 0.3 0  0.3 0.3 0  0.3333333333333333 0.3 0  0.3666666666666666 0.3 0  0.4 0.3 0  0.4333333333333333 0.3 0  0.4666666666666667 0.3 0  0.5 0.3 0  0.5333333333333333 0.3 0  0.5666666666666667 0.3 0  0.6 0.3 0  0.6333333333333333 0.3 0  0.6666666666666666 0.3 0  0.7 0.3 0  0.7333333333333333 0.3 0  0.7666666666666667 0.3 0  0.8 0.3 0  0.8333333333333334 0.3 0  0.8666666666666667 0.3 0  0.9 0.3 0  0.9333333333333333 0.3 0  0.9666666666666667 0.3 0  1 0.3 0  0 0.3333333333333333 0  0.03333333333333333 0.3333333333333333 0  0.06666666666666667 0.3333333333333333 0  0.1 0.3333333333333333 0  0.1333333333333333 0.3333333333333333 0  0.1666666666666667 0.3333333333333333 0  0.2 0.3333333333333333 0  0.2333333333333333 0.3333333333333333 0  0.2666666666666667 0.3333333333333333 0  0.3 0.3333333333333333 0  0.3333333333333333 0.3333333333333333 0  0.3666666666666666 0.3333333333333333 0  0.4 0.3333333333333333 0  0.4333333333333333 0.3333333333333333 0  0.4666666666666667 0.3333333333333333 0  0.5 0.3333333333333333 0  0.5333333333333333 0.33333333333333
[...]
<PointData  Vectors="u_f"> 
<DataArray  type="Float64"  Name="u_f"  NumberOfComponents="3" format="ascii">2.7089208750757129e-06 1.3075061140125493e-10 0.0000000000000000e+00  2.7089208668211939e-06 1.3072811675405097e-10 0.0000000000000000e+00  2.7089208593767365e-06 1.3073671946460877e-10 0.0000000000000000e+00  2.7089208596472992e-06 1.3073026060121673e-10 0.0000000000000000e+00  2.7089208642431780e-06 1.3074733808647598e-10 0.0000000000000000e+00  2.7089208619380015e-06 1.3075902058172495e-10 0.0000000000000000e+00  2.7089208816711858e-06 1.3075029573579242e-10 0.0000000000000000e+00  2.7089208566651469e-06 1.3073073813806360e-10 0.0000000000000000e+00  2.7089208600312694e-06 1.3075560637487368e-10 0.0000000000000000e+00  2.7089208726205371e-06 1.3075450141022960e-10 0.0000000000000000e+00  2.7089208643068748e-06 1.3077574228604130e-10 0.0000000000000000e+00  2.7089208466423483e-06 1.3066490164165279e-10 0.0000000000000000e+00  2.7089208193298319e-06 1.3074126210908116e-10 0.0000000000000000e+00  2.7089208592213161e-06 1.3072836086217010e-10 0.0000000000000000e+00  2.7089208581982630e-06 1.3073240526153412e-10 0.0000000000000000e+00  2.7089208610066719e-06 1.3076170067528523e-10 0.0000000000000000e+00  2.7089208775377734e-06 1.3075522213362376e-10 0.0000000000000000e+00  2.7089208688440441e-06 1.3074074901040303e-10 0.0000000000000000e+00  2.7089208715334076e-06 1.3074040970933315e-10 0.0000000000000000e+00  2.7089208631269376e-06 1.3074745951711930e-10 0.0000000000000000e+00  2.7089208850553602e-06 1.3075279661073358e-10 0.0000000000000000e+00  2.7089208633943561e-06 1.3071356356249980e-10 0.0000000000000000e+00  2.7089208765913191e-06 1.3084545241997397e-10 0.0000000000000000e+00  2.7089209313880354e-06 1.3078327250381008e-10 0.0000000000000000e+00  2.7089208889548018e-06 1.3074651132810935e-10 0.0000000000000000e+00  2.7089208485825281e-06 1.3074910593232833e-10 0.0000000000000000e+00  2.7089208699475451e-06 1.3075393903456273e-10 0.0000000000000000e+00  2.7089208820910431e-06 1.3075238824598531e-10 0.0000000000000000e+00  2.7089208660657760e-06 1.3075862826316884e-10 0.0000000000000000e+00  2.7089208684313968e-06 1.3074866715570913e-10 0.0000000000000000e+00  2.7089208750757671e-06 -7.5485601933649565e-11 0.0000000000000000e+00  4.1705082388301647e-04 3.4995483832837848e-10 0.0000000000000000e+00  4.1705082387884110e-04 3.4998100760779555e-10 0.0000000000000000e+00  4.1705082387535593e-04 3.4996956905803539e-10 0.0000000000000000e+00  4.1705082388158435e-04 3.4995012454259317e-10 0.0000000000000000e+00  4.1705082388171066e-04 3.4993626182519555e-10 0.0000000000000000e+00  4.1705082387117883e-04 3.4996046132610564e-10 0.0000000000000000e+00  4.1705082388601266e-04 3.4997548392298738e-10 0.0000000000000000e+00  4.1705082387169360e-04 3.4997035488777001e-10 0.0000000000000000e+00  4.1705082388680326e-04 3.4997246333573484e-10 0.0000000000000000e+00  4.1705082387961316e-04 3.4996404754163157e-10 0.0000000000000000e+00  4.1705082388073368e-04 3.4997786439727729e-10 0.0000000000000000e+00  4.1705082383503749e-04 3.4991322448059414e-10 0.0000000000000000e+00  4.1705082383330884e-04 3.4995082797296267e-10 0.0000000000000000e+00  4.1705082388983534e-04 3.4997086500489216e-10 0.0000000000000000e+00  4.1705082387643417e-04 3.4997235979442737e-10 0.0000000000000000e+00  4.1705082388246483e-04 3.4994983224168746e-10 0.0000000000000000e+00  4.1705082387478521e-04 3.4995086526951741e-10 0.0000000000000000e+00  4.1705082387796528e-04 3.4995141680316255e-10 0.0000000000000000e+00  4.1705082387909643e-04 3.4994748245031904e-10 0.0000000000000000e+00  4.1705082387008909e-04 3.4994240025263551e-10 0.0000000000000000e+00  4.1705082387406692e-04 3.4997264602380090e-10 0.0000000000000000e+00  4.1705082389201058e-04 3.4996710065494929e-10 0.0000000000000000e+00  4.1705082391513618e-04 3.5002216782539092e-10 0.0000000000000000e+00  4.1705082393617317e-04 3.4997870205187576e-10 0.0000000000000000e+00  4.1705082387146560e-04 3.4994418343994860e-10 0.0000000000000000e+00  4.1705082387630526e-04 3.4997020028054021e-10 0.0000000000000000e+00  4.1705082388304802e-04 3.4997809966914872e-10 0.0000000000000000e+00  4.1705082389477421e-04 3.4994869523886918e-10 0.0000000000000000e+00  4.1705082386986380e-04 3.4994464476797299e-10 0.0000000000000000e+00  4.1705082387359562e-04 3.4997642728729766e-10 0.0000000000000000e+00  4.1705082388301669e-04 9.1537445828009487e-10 0.0000000000000000e+00  7.5928081270161269e-04 3.5487662049422941e-10 0.0000000000000000e+00  7.5928081270978400e-04 3.5485531993308811e-10 0.0000000000000000e+00  7.5928081270599049e-04 3.5485357089814346e-10 0.0000000000000000e+00  7.5928081269708561e-04 3.5486139341681794e-10 0.0000000000000000e+00  7.5928081270245772e-04 3.5486762150777756e-10 0.0000000000000000e+00  7.5928081270768303e-04 3.5485182565790641e-10 0.0000000000000000e+00  7.5928081270307528e-04 3.5484584584924428e-10 0.0000000000000000e+00  7.5928081269834220e-04 3.5485203686048961e-10 0.0000000000000000e+00  7.5928081270631716e-04 3.5486473135004637e-10 0.0000000000000000e+00  7.5928081270814729e-04 3.5485409966354298e-10 0.0000000000000000e+00  7.5928081271555543e-04 3.5487686162079257e-10 0.0000000000000000e+00  7.5928081266198868e-04 3.5479368423220470e-10 0.0000000000000000e+00  7.5928081266058637e-04 3.5485167527906508e-10 0.0000000000000000e+00  7.5928081269090706e-04 3.5485560106671143e-10 0.0000000000000000e+00  7.5928081269920674e-04 3.5485560919822773e-10 0.0000000000000000e+00  7.5928081269531565e-04 3.5483492446392040e-10 0.0000000000000000e+00  7.5928081268686971e-04 3.5484512040957067e-10 0.0000000000000000e+00  7.5928081269408519e-04 3.5485066632052337e-10 0.0000000000000000e+00  7.5928081270746446e-04 3.5484625784606982e-10 0.0000000000000000e+00  7.5928081270584119e-04 3.5486402119762339e-10 0.0000000000000000e+00  7.5928081271381496e-04 3.5485185612398745e-10 0.0000000000000000e+00  7.5928081270139661e-04 3.5484796676553410e-10 0.0000000000000000e+00  7.5928081276359480e-04 3.5493036743168560e-10 0.0000000000000000e+00  7.5928081273480446e-04 3.5487283001501418e-10 0.0000000000000000e+00  7.5928081270852166e-04 3.5486615198015298e-10 0.0000000000000000e+00  7.5928081269936482e-04 3.5486455408299117e-10 0.0000000000000000e+00  7.5928081270389657e-04 3.5485778790249334e-10 0.0000000000000000e+00  7.5928081270259129e-04 3.5484243494920964e-10 0.0000000000000000e+00  7.5928081269904964e-04 3.5485945193598767e-10 0.0000000000000000e+00  7.5928081271057612e-04 3.5486501953098382e-10 0.0000000000000000e+00  7.5928081270161313e-04 1.8340184931371434e-09 0.0000000000000000e+00  9.7022431420835313e-04 4.2613805843402797e-10 0.0000000000000000e+00  9.7022431420605982e-04 4.2614323007839072e-10 0.0000000000000000e+00  9.7022431420366634e-04 4.2616109621231024e-10 0.0000000000000000e+00  9.7022431422246250e-04 4.2613796974629026e-10 0.0000000000000000e+00  9.7022431421377306e-04 4.2616471549600243e-10 0.0000000000000000e+00  9.7022431421358896e-04 4.2613448533734832e-10 0.0000000000000000e+00  9.7022431419451763e-04 4.2612449875113756e-10 0.0000000000000000e+00  9.7022431420375893e-04 4.2613821325809820e-10 0.0000000000000000e+00  9.7022431421664164e-04 4.2614659305668934e-10 0.0000000000000000e+00  9.7022431419751544e-04 4.2614675828910042e-10 0.0000000000000000e+00  9.7022431422525389e-04 4.2615842343711463e-10 0.0000000000000000e+00  9.7022431418368536e-04 4.2615825451841616e-10 0.0000000000000000e+00  9.7022431422700336e-04 4.2612433547029038e-10 0.0000000000000000e+00  9.7022431420752827e-04 4.2616040731024984e-10 0.0000000000000000e+00  9.7022431420546785e-04 4.2612901076689857e-10 0.0000000000000000e+00  9.7022431420403887e-04 4.2614320037125120e-10 0.0000000000000000e+00  9.7022431420274694e-04 4.2614925065305453e-10 0.0000000000000000e+00  9.7022431421191734e-04 4.2616179682375410e-10 0.0000000000000000e+00  9.7022431422599722e-04 4.2614076243424615e-10 0.0000000000000000e+00  9.7022431421120978e-04 4.2614309780572568e-10 0.0000000000000000e+00  9.7022431422316246e-04 4.2615327737992315e-10 0.0000000000000000e+00  9.7022431420337816e-04 4.2616270408413204e-10 0.0000000000000000e+00  9.7022431424495623e-04 4.2612497233064650e-10 0.0000000000000000e+00  9.7022431419561115e-04 4.2614764733488186e-10 0.0000000000000000e+00  9.7022431422240851e-04 4.2613922373452295e-10 0.0000000000000000e+00  9.7022431421134227e-04 4.2615431279299787e-10 0.0000000000000000e+00  9.7022431421227360e-04 4.2615426118497446e-10 0.0000000000000000e+00  9.7022431421693502e-04 4.2616874872808408e-10 0.0000000000000000e+00  9.7022431421024615e-04 4.2613619815994042e-10 0.0000000000000000e+00  9.7022431419620725e-04 4.2613204870138588e-10 0.0000000000000000e+00  9.7022431420835313e-04 2.4345794201893358e-09 0.0000000000000000e+00  1.0134073258546122e-03 7.0546374861604755e-10 0.0000000000000000e+00  1.0134073258395685e-03 7.0546869192743278e-10 0.0000000000000000e+00  1.0134073258391378e-03 7.0545589227026528e-10 0.0000000000000000e+00  1.0134073258369280e-03 7.0545467883119384e-10 0.0000000000000000e+00  1.0134073258617404e-03 7.0545892998791215e-10 0.0000000000000000e+00  1.0134073258414346e-03 7.0546554459694627e-10 0.0000000000000000e+00  1.0134073258588833e-03 7.0544641645169798e-10 0.0000000000000000e+00  1.0134073258270156e-03 7.0544503192552371e-10 0.0000000000000000e+00  1.0134073258493629e-03 7.0544317999979289e-10 0.0000000000000000e+00  1.0134073258428844e-03 7.0543511299352851e-10 0.0000000000000000e+00  1.0134073258405965e-03 7.0545312777156588e-10 0.0000000000000000e+00  1.0134073258478960e-03 7.0545678565285541e-10 0.0000000000000000e+00  1.0134073258425270e-03 7.0545912937269167e-10 0.0000000000000000e+00  1.0134073258410326e-03 7.0545213919602501e-10 0.0000000000000000e+00  1.0134073258464792e-03 7.0545283124227171e-10 0.0000000000000000e+00  1.0134073258322935e-03 7.0545892142271499e-10 0.0000000000000000e+00  1.0134073258399657e-03 7.0549049328155755e-10 0.0000000000000000e+00  1.0134073258780719e-03 7.0547078129343938e-10 0.0000000000000000e+00  1.0134073258404944e-03 7.0548537617256407e-10 0.0000000000000000e+00  1.0134073258595353e-03 7.0547197228952585e-10 0.0000000000000000e+00  1.0134073258476902e-03 7.0547191287524680e-10 0.0000000000000000e+00  1.0134073258482104e-03 7.0549156805117114e-10 0.0000000000000000e+00  1.0134073258622825e-03 7.0545917176499662e-10 0.0000000000000000e+00  1.0134073258330012e-03 7.0545539939195767e-10 0.0000000000000000e+00  1.0134073258442002e-03 7.0544877133881662e-10 0.0000000000000000e+00  1.0134073258509337e-03 7.0545462158531913e-10 0.0000000000000000e+00  1.0134073258467957e-03 7.0544473854041584e-10 0.0000000000000000e+00  1.0134073258497816e-03 7.0546255783680151e-10 0.0000000000000000e+00  1.0134073258512510e-03 7.0545741828482306e-10 0.0000000000000000e+00  1.0134073258319771e-03 7.0546396567332248e-10 0.0000000000000000e+00  1.0134073258546124e-03 2.5420373273980611e-09 0.0000000000000000e+00  8.8136307205003328e-04 1.0690715203289652e-09 0.0000000000000000e+00  8.8136307203017341e-04 1.0690477708803769e-09 0.0000000000000000e+00  8.8136307201272534e-04 1.0690563956002389e-09 0.0000000000000000e+00  8.8136307204624909e-04 1.0690524376117880e-09 0.0000000000000000e+00  8.8136307202343162e-04 1.0690593678320745e-09 0.0000000000000000e+00  8.8136307204145703e-04 1.0690565713494110e-09 0.0000000000000000e+00  8.8136307203092498e-04 1.0690375846925462e-09 0.0000000000000000e+00  8.8136307203360426e-04 1.0690696565854307e-09 0.0000000000000000e+00  8.8136307202772571e-04 1.0690612145536349e-09 0.0000000000000000e+00  8.8136307204152240e-04 1.0690711547359927e-09 0.0000000000000000e+00  8.8136307203219653e-04 1.0690750713079206e-09 0.0000000000000000e+00  8.8136307203484990e-04 1.0690684255822841e-09 0.0000000000000000e+00  8.8136307202818140e-04 1.0690573830915776e-09 0.0000000000000000e+00  8.8136307202987699e-04 1.0690541226788045e-09 0.0000000000000000e+00  8.8136307203367907e-04 1.0690879624717514e-09 0.0000000000000000e+00  8.8136307202220582e-04 1.0690589211407794e-09 0.0000000000000000e+00  8.8136307204199956e-04 1.0690566887685063e-09 0.0000000000000000e+00  8.8136307203603168e-04 1.0690603547813121e-09 0.0000000000000000e+00  8.8136307203919668e-04 1.0690625669874249e-09 0.0000000000000000e+00  8.8136307204472752e-04 1.0690718845124750e-09 0.0000000000000000e+00  8.8136307202607090e-04 1.0690454108975081e-09 0.0000000000000000e+00  8.8136307203478712e-04 1.0690581009418360e-09 0.0000000000000000e+00  8.8136307203622889e-04 1.0690561635809739e-09 0.0000000000000000e+00  8.8136307202909625e-04 1.0690613801113066e-09 0.0000000000000000e+00  8.8136307202878270e-04 1.0690586447776457e-09 0.0000000000000000e+00  8.8136307203466992e-04 1.0690605322652078e-09 0.0000000000000000e+00  8.8136307203243245e-04 1.0690633372046482e-09 0.0000000000000000e+00  8.8136307204675574e-04 1.0690434718019226e-09 0.0000000000000000e+00  8.8136307202724108e-04 1.0690617372475023e-09 0.0000000000000000e+00  8.8136307204072400e-04 1.0690604011851651e-09 0.0000000000000000e+00  8.8136307205003372e-04 2.1294129172101020e-09 0.0000000000000000e+00  5.9692310403692975e-04 1.1995756051897191e-09 0.0000000000000000e+00  5.9692310403819664e-04 1.1995878244734637e-09 0.0000000000000000e+00  5.9692310402391217e-04 1.1995930554236853e-09 0.0000000000000000e+00  5.9692310403451935e-04 1.1995965545235666e-09 0.0000000000000000e+00  5.9692310404584905e-04 1.1995995773876438e-09 0.0000000000000000e+00  5.9692310402293183e-04 1.1995841880593772e-09 0.0000000000000000e+00  5.9692310404236767e-04 1.1995902289628317e-09 0.0000000000000000e+00  5.9692310402922172e-04 1.1995741025397182e-09 0.0000000000000000e+00  5.9692310404614287e-04 1.1995965152754480e-09 0.0000000000000000e+00  5.9692310403958431e-04 1.1995808033970351e-09 0.0000000000000000e+00  5.9692310402185804e-04 1.1995630780467677e-09 0.0000000000000000e+00  5.9692310403368191e-04 1.1995838793328086e-09 0.0000000000000000e+00  5.9692310403228243e-04 1.1995861784919355e-09 0.0000000000000000e+00  5.9692310404474728e-04 1.1995939601903982e-09 0.0000000000000000e+00  5.9692310402696387e-04 1.1996036788702522e-09 0.0000000000000000e+00  5.9692310405389437e-04 1.1996039856994670e-09 0.0000000000000000e+00  5.9692310402694219e-04 1.1995877388214921e-09 0.0000000000000000e+00  5.9692310403314675e-04 1.1996021614751017e-09 0.0000000000000000e+00  5.9692310404367370e-04 1.1995837634858064e-09 0.0000000000000000e+00  5.9692310403143859e-04 1.1995734784187376e-09 0.0000000000000000e+00  5.9692310404038250e-04 1.1995950082344282e-09 0.0000000000000000e+00  5.9692310403582462e-04 1.1995825091723131e-09 0.0000000000000000e+00  5.9692310402795364e-04 1.1995911555220083e-09 0.0000000000000000e+00  5.9692310403386829e-04 1.1995928190676117e-09 0.0000000000000000e+00  5.9692310404281231e-04 1.1996288811497516e-09 0.0000000000000000e+00  5.9692310405161830e-04 1.1996173544001447e-09 0.0000000000000000e+00  5.9692310403434772e-04 1.1995884761873896e-09 0.0000000000000000e+00  5.9692310403236927e-04 1.1996109582036382e-09 0.0000000000000000e+00  5.9692310403302066e-04 1.1996201264340492e-09 0.0000000000000000e+00  5.9692310404535834e-04 1.1995776380687925e-09 0.0000000000000000e+00  5.9692310403692997e-04 1.3270227736216649e-09 0.0000000000000000e+00  2.0926958308145835e-04 8.0918652013088187e-10 0.0000000000000000e+00  2.0926958307664561e-04 8.0917753506287542e-10 0.0000000000000000e+00  2.0926958306857407e-04 8.0918727077825599e-10 0.0000000000000000e+00  2.0926958308734356e-04 8.0917462408846251e-10 0.0000000000000000e+00  2.0926958309171187e-04 8.0918887885336570e-10 0.0000000000000000e+00  2.0926958307390341e-04 8.0919250144387452e-10 0.0000000000000000e+00  2.0926958307189626e-04 8.0915833889749333e-10 0.0000000000000000e+00  2.0926958309164110e-04 8.0915763266175070e-10 0.0000000000000000e+00  2.0926958307001763e-04 8.0915774330458240e-10 0.0000000000000000e+00  2.0926958308307877e-04 8.0918319144047696e-10 0.0000000000000000e+00  2.0926958307248078e-04 8.0918147665276843e-10 0.0000000000000000e+00  2.0926958307609865e-04 8.0917448281691944e-10 0.0000000000000000e+00  2.0926958307623949e-04 8.0917429237680784e-10 0.0000000000000000e+00  2.0926958308458159e-04 8.0917527446068820e-10 0.0000000000000000e+00  2.0926958306424515e-04 8.0916216348841941e-10 0.0000000000000000e+00  2.0926958309425007e-04 8.0917187486346121e-10 0.0000000000000000e+00  2.0926958308812132e-04 8.0916626315498917e-10 0.0000000000000000e+00  2.0926958306923251e-04 8.0916589289994727e-10 0.0000000000000000e+00  2.0926958308788239e-04 8.0916825501056288e-10 0.0000000000000000e+00  2.0926958308779969e-04 8.0917100084743239e-10 0.0000000000000000e+00  2.0926958307870245e-04 8.0916490490716506e-10 0.0000000000000000e+00  2.0926958307533668e-04 8.0915432039700870e-10 0.0000000000000000e+00  2.0926958306282338e-04 8.0915940609124423e-10 0.0000000000000000e+00  2.0926958307982752e-04 8.0917126334633088e-10 0.0000000000000000e+00  2.0926958308409725e-04 8.0915736673406284e-10 0.0000000000000000e+00  2.0926958306968785e-04 8.0915302095359992e-10 0.0000000000000000e+00  2.0926958309357011e-04 8.0918046799238232e-10 0.0000000000000000e+00  2.0926958307874787e-04 8.0918546091956946e-10 0.0000000000000000e+00  2.0926958308567668e-04 8.0918381404357451e-10 0.0000000000000000e+00  2.0926958307823754e-04 8.0917659131909438e-10 0.0000000000000000e+00  2.0926958308145838e-04 3.6017273554449887e-10 0.0000000000000000e+00  -2.1456870012347026e-04 -1.3541257937003948e-10 0.0000000000000000e+00  -2.1456870011601372e-04 -1.3540666683612215e-10 0.0000000000000000e+00  -2.1456870013446310e-04 -1.3539784663460855e-10 0.0000000000000000e+00  -2.1456870011585152e-04 -1.3540241795622840e-10 0.0000000000000000e+00  -2.1456870011991809e-04 -1.3541262056972203e-10 0.0000000000000000e+00  -2.1456870011392457e-04 -1.3539143623505362e-10 0.0000000000000000e+00  -2.1456870013061255e-04 -1.3540006003334368e-10 0.0000000000000000e+00  -2.1456870012833502e-04 -1.3539551581677814e-10 0.0000000000000000e+00  -2.1456870010886855e-04 -1.3539263259794085e-10 0.0000000000000000e+00  -2.1456870012195574e-04 -1.3541310135917542e-10 0.0000000000000000e+00  -2.1456870012097475e-04 -1.3539966668479550e-10 0.0000000000000000e+00  -2.1456870012117983e-04 -1.3542006296711484e-10 0.0000000000000000e+00  -2.1456870012748051e-04 -1.3542384043590400e-10 0.0000000000000000e+00  -2.1456870011681120e-04 -1.3540412866462626e-10 0.0000000000000000e+00  -2.1456870013862817e-04 -1.3540854272272099e-10 0.0000000000000000e+00  -2.1456870011315175e-04 -1.3540242722615697e-10 0.0000000000000000e+00  -2.1456870012047440e-04 -1.3541563579017382e-10 0.0000000000000000e+00  -2.1456870012766282e-04 -1.3543704319943922e-10 0.0000000000000000e+00  -2.1456870013078570e-04 -1.3540181931399886e-10 0.0000000000000000e+00  -2.1456870011108098e-04 -1.3539670524077146e-10 0.0000000000000000e+00  -2.1456870010408066e-04 -1.3540534752470856e-10 0.0000000000000000e+00  -2.1456870014136383e-04 -1.3539237672622814e-10 0.0000000000000000e+00  -2.1456870011351089e-04 -1.3539423678347526e-10 0.0000000000000000e+00  -2.1456870013247993e-04 -1.3542008725324350e-10 0.0000000000000000e+00  -2.1456870012475233e-04 -1.3541929047306694e-10 0.0000000000000000e+00  -2.1456870012694697e-04 -1.3542382471497250e-10 0.0000000000000000e+00  -2.1456870011863331e-04 -1.3541151126826925e-10 0.0000000000000000e+00  -2.1456870011408416e-04 -1.3541768997381992e-10 0.0000000000000000e+00  -2.1456870013526676e-04 -1.3540622074113828e-10 0.0000000000000000e+00  -2.1456870011986036e-04 -1.3540380595184962e-10 0.0000000000000000e+00  -2.1456870012347043e-04 -5.4642452614775328e-10 0.0000000000000000e+00  -6.0130619545744159e-04 -1.3405426607096191e-09 0.0000000000000000e+00  -6.0130619545980158e-04 -1.3405479564951306e-09 0.0000000000000000e+00  -6.0130619546130536e-04 -1.3405457156660805e-09 0.0000000000000000e+00  -6.0130619545094733e-04 -1.3405306232465788e-09 0.0000000000000000e+00  -6.0130619546