<?xml version="1.0"?>
<VTKFile type="UnstructuredGrid"  version="0.1"  >
<UnstructuredGrid>
<Piece  NumberOfPoints="961" NumberOfCells="1800">
<Points>
<DataArray  type="Float64"  NumberOfComponents="3"  format="ascii">0 0 0  0.03333333333333333 0 0  0.06666666666666667 0 0  0.1 0 0  0.1333333333333333 0 0  0.1666666666666667 0 0  0.2 0 0  0.2333333333333333 0 0  0.2666666666666667 0 0  0.3 0 0  0.3333333333333333 0 0  0.3666666666666666 0 0  0.4 0 0  0.4333333333333333 0 0  0.4666666666666667 0 0  0.5 0 0  0.5333333333333333 0 0  0.5666666666666667 0 0  0.6 0 0  0.6333333333333333 0 0  0.6666666666666666 0 0  0.7 0 0  0.7333333333333333 0 0  0.7666666666666667 0 0  0.8 0 0  0.8333333333333334 0 0  0.8666666666666667 0 0  0.9 0 0  0.9333333333333333 0 0  0.9666666666666667 0 0  1 0 0  0 0.03333333333333333 0  0.03333333333333333 0.03333333333333333 0  0.06666666666666667 0.03333333333333333 0  0.1 0.03333333333333333 0  0.1333333333333333 0.03333333333333333 0  0.1666666666666667 0.03333333333333333 0  0.2 0.03333333333333333 0  0.2333333333333333 0.03333333333333333 0  0.2666666666666667 0.03333333333333333 0  0.3 0.03333333333333333 0  0.3333333333333333 0.03333333333333333 0  0.3666666666666666 0.03333333333333333 0  0.4 0.03333333333333333 0  0.4333333333333333 0.03333333333333333 0  0.4666666666666667 0.03333333333333333 0  0.5 0.03333333333333333 0  0.5333333333333333 0.03333333333333333 0  0.5666666666666667 0.03333333333333333 0  0.6 0.03333333333333333 0  0.6333333333333333 0.03333333333333333 0  0.6666666666666666 0.03333333333333333 0  0.7 0.03333333333333333 0  0.7333333333333333 0.03333333333333333 0  0.7666666666666667 0.03333333333333333 0  0.8 0.03333333333333333 0  0.8333333333333334 0.03333333333333333 0  0.8666666666666667 0.03333333333333333 0  0.9 0.03333333333333333 0  0.9333333333333333 0.03333333333333333 0  0.9666666666666667 0.03333333333333333 0  1 0.03333333333333333 0  0 0.06666666666666667 0  0.03333333333333333 0.06666666666666667 0  0.06666666666666667 0.06666666666666667 0  0.1 0.06666666666666667 0  0.1333333333333333 0.06666666666666667 0  0.1666666666666667 0.06666666666666667 0  0.2 0.06666666666666667 0  0.2333333333333333 0.06666666666666667 0  0.2666666666666667 0.06666666666666667 0  0.3 0.06666666666666667 0  0.3333333333333333 0.06666666666666667 0  0.3666666666666666 0.06666666666666667 0  0.4 0.06666666666666667 0  0.4333333333333333 0.06666666666666667 0  0.4666666666666667 0.06666666666666667 0  0.5 0.06666666666666667 0  0.5333333333333333 0.06666666666666667 0  0.5666666666666667 0.06666666666666667 0  0.6 0.06666666666666667 0  0.6333333333333333 0.06666666666666667 0  0.6666666666666666 0.06666666666666667 0  0.7 0.06666666666666667 0  0.7333333333333333 0.06666666666666667 0  0.7666666666666667 0.06666666666666667 0  0.8 0.06666666666666667 0  0.8333333333333334 0.06666666666666667 0  0.8666666666666667 0.06666666666666667 0  0.9 0.06666666666666667 0  0.9333333333333333 0.06666666666666667 0  0.9666666666666667 0.06666666666666667 0  1 0.06666666666666667 0  0 0.1 0  0.03333333333333333 0.1 0  0.06666666666666667 0.1 0  0.1 0.1 0  0.1333333333333333 0.1 0  0.1666666666666667 0.1 0  0.2 0.1 0  0.2333333333333333 0.1 0  0.2666666666666667 0.1 0  0.3 0.1 0  0.3333333333333333 0.1 0  0.3666666666666666 0.1 0  0.4 0.1 0  0.4333333333333333 0.1 0  0.4666666666666667 0.1 0  0.5 0.1 0  0.5333333333333333 0.1 0  0.5666666666666667 0.1 0  0.6 0.1 0  0.6333333333333333 0.1 0  0.6666666666666666 0.1 0  0.7 0.1 0  0.7333333333333333 0.1 0  0.7666666666666667 0.1 0  0.8 0.1 0  0.8333333333333334 0.1 0  0.8666666666666667 0.1 0  0.9 0.1 0  0.9333333333333333 0.1 0  0.9666666666666667 0.1 0  1 0.1 0  0 0.1333333333333333 0  0.03333333333333333 0.1333333333333333 0  0.06666666666666667 0.1333333333333333 0  0.1 0.1333333333333333 0  0.1333333333333333 0.1333333333333333 0  0.1666666666666667 0.1333333333333333 0  0.2 0.1333333333333333 0  0.2333333333333333 0.1333333333333333 0  0.2666666666666667 0.1333333333333333 0  0.3 0.1333333333333333 0  0.3333333333333333 0.1333333333333333 0  0.3666666666666666 0.1333333333333333 0  0.4 0.1333333333333333 0  0.4333333333333333 0.1333333333333333 0  0.4666666666666667 0.1333333333333333 0  0.5 0.1333333333333333 0  0.5333333333333333 0.1333333333333333 0  0.5666666666666667 0.1333333333333333 0  0.6 0.1333333333333333 0  0.6333333333333333 0.1333333333333333 0  0.6666666666666666 0.1333333333333333 0  0.7 0.1333333333333333 0  0.7333333333333333 0.1333333333333333 0  0.7666666666666667 0.1333333333333333 0  0.8 0.1333333333333333 0  0.8333333333333334 0.1333333333333333 0  0.8666666666666667 0.1333333333333333 0  0.9 0.1333333333333333 0  0.9333333333333333 0.1333333333333333 0  0.9666666666666667 0.1333333333333333 0  1 0.1333333333333333 0  0 0.1666666666666667 0  0.03333333333333333 0.1666666666666667 0  0.06666666666666667 0.1666666666666667 0  0.1 0.1666666666666667 0  0.1333333333333333 0.1666666666666667 0  0.1666666666666667 0.1666666666666667 0  0.2 0.1666666666666667 0  0.2333333333333333 0.1666666666666667 0  0.2666666666666667 0.1666666666666667 0  0.3 0.1666666666666667 0  0.3333333333333333 0.1666666666666667 0  0.3666666666666666 0.1666666666666667 0  0.4 0.1666666666666667 0  0.4333333333333333 0.1666666666666667 0  0.4666666666666667 0.1666666666666667 0  0.5 0.1666666666666667 0  0.5333333333333333 0.1666666666666667 0  0.5666666666666667 0.1666666666666667 0  0.6 0.1666666666666667 0  0.6333333333333333 0.1666666666666667 0  0.6666666666666666 0.1666666666666667 0  0.7 0.1666666666666667 0  0.7333333333333333 0.1666666666666667 0  0.7666666666666667 0.1666666666666667 0  0.8 0.1666666666666667 0  0.8333333333333334 0.1666666666666667 0  0.8666666666666667 0.1666666666666667 0  0.9 0.1666666666666667 0  0.9333333333333333 0.1666666666666667 0  0.9666666666666667 0.1666666666666667 0  1 0.1666666666666667 0  0 0.2 0  0.03333333333333333 0.2 0  0.06666666666666667 0.2 0  0.1 0.2 0  0.1333333333333333 0.2 0  0.1666666666666667 0.2 0  0.2 0.2 0  0.2333333333333333 0.2 0  0.2666666666666667 0.2 0  0.3 0.2 0  0.3333333333333333 0.2 0  0.3666666666666666 0.2 0  0.4 0.2 0  0.4333333333333333 0.2 0  0.4666666666666667 0.2 0  0.5 0.2 0  0.5333333333333333 0.2 0  0.5666666666666667 0.2 0  0.6 0.2 0  0.6333333333333333 0.2 0  0.6666666666666666 0.2 0  0.7 0.2 0  0.7333333333333333 0.2 0  0.7666666666666667 0.2 0  0.8 0.2 0  0.8333333333333334 0.2 0  0.8666666666666667 0.2 0  0.9 0.2 0  0.9333333333333333 0.2 0  0.9666666666666667 0.2 0  1 0.2 0  0 0.2333333333333333 0  0.03333333333333333 0.2333333333333333 0  0.06666666666666667 0.2333333333333333 0  0.1 0.2333333333333333 0  0.1333333333333333 0.2333333333333333 0  0.1666666666666667 0.2333333333333333 0  0.2 0.2333333333333333 0  0.2333333333333333 0.2333333333333333 0  0.2666666666666667 0.2333333333333333 0  0.3 0.2333333333333333 0  0.3333333333333333 0.2333333333333333 0  0.3666666666666666 0.2333333333333333 0  0.4 0.2333333333333333 0  0.4333333333333333 0.2333333333333333 0  0.4666666666666667 0.2333333333333333 0  0.5 0.2333333333333333 0  0.5333333333333333 0.2333333333333333 0  0.5666666666666667 0.2333333333333333 0  0.6 0.2333333333333333 0  0.6333333333333333 0.2333333333333333 0  0.6666666666666666 0.2333333333333333 0  0.7 0.2333333333333333 0  0.7333333333333333 0.2333333333333333 0  0.7666666666666667 0.2333333333333333 0  0.8 0.2333333333333333 0  0.8333333333333334 0.2333333333333333 0  0.8666666666666667 0.2333333333333333 0  0.9 0.2333333333333333 0  0.9333333333333333 0.2333333333333333 0  0.9666666666666667 0.2333333333333333 0  1 0.2333333333333333 0  0 0.2666666666666667 0  0.03333333333333333 0.2666666666666667 0  0.06666666666666667 0.2666666666666667 0  0.1 0.2666666666666667 0  0.1333333333333333 0.2666666666666667 0  0.1666666666666667 0.2666666666666667 0  0.2 0.2666666666666667 0  0.2333333333333333 0.2666666666666667 0  0.2666666666666667 0.2666666666666667 0  0.3 0.2666666666666667 0  0.3333333333333333 0.2666666666666667 0  0.3666666666666666 0.2666666666666667 0  0.4 0.2666666666666667 0  0.4333333333333333 0.2666666666666667 0  0.4666666666666667 0.2666666666666667 0  0.5 0.2666666666666667 0  0.5333333333333333 0.2666666666666667 0  0.5666666666666667 0.2666666666666667 0  0.6 0.2666666666666667 0  0.6333333333333333 0.2666666666666667 0  0.6666666666666666 0.2666666666666667 0  0.7 0.2666666666666667 0  0.7333333333333333 0.2666666666666667 0  0.7666666666666667 0.2666666666666667 0  0.8 0.2666666666666667 0  0.8333333333333334 0.2666666666666667 0  0.8666666666666667 0.2666666666666667 0  0.9 0.2666666666666667 0  0.9333333333333333 0.2666666666666667 0  0.9666666666666667 0.2666666666666667 0  1 0.2666666666666667 0  0 0.3 0  0.03333333333333333 0.3 0  0.06666666666666667 0.3 0  0.1 0.3 0  0.1333333333333333 0.3 0  0.1666666666666667 0.3 0  0.2 0.3 0  0.2333333333333333 0.3 0  0.2666666666666667 0.3 0  0.3 0.3 0  0.3333333333333333 0.3 0  0.3666666666666666 0.3 0  0.4 0.3 0  0.4333333333333333 0.3 0  0.4666666666666667 0.3 0  0.5 0.3 0  0.5333333333333333 0.3 0  0.5666666666666667 0.3 0  0.6 0.3 0  0.6333333333333333 0.3 0  0.6666666666666666 0.3 0  0.7 0.3 0  0.7333333333333333 0.3 0  0.7666666666666667 0.3 0  0.8 0.3 0  0.8333333333333334 0.3 0  0.8666666666666667 0.3 0  0.9 0.3 0  0.9333333333333333 0.3 0  0.9666666666666667 0.3 0  1 0.3 0  0 0.3333333333333333 0  0.03333333333333333 0.3333333333333333 0  0.06666666666666667 0.3333333333333333 0  0.1 0.3333333333333333 0  0.1333333333333333 0.3333333333333333 0  0.1666666666666667 0.3333333333333333 0  0.2 0.3333333333333333 0  0.2333333333333333 0.3333333333333333 0  0.2666666666666667 0.3333333333333333 0  0.3 0.3333333333333333 0  0.3333333333333333 0.3333333333333333 0  0.3666666666666666 0.3333333333333333 0  0.4 0.3333333333333333 0  0.4333333333333333 0.3333333333333333 0  0.4666666666666667 0.3333333333333333 0  0.5 0.3333333333333333 0  0.5333333333333333 0.33333333333333
[...]
<PointData  Vectors="u_f"> 
<DataArray  type="Float64"  Name="u_f"  NumberOfComponents="3" format="ascii">2.7081727597932080e-06 -3.1103041864591861e-09 0.0000000000000000e+00  2.7081727407978233e-06 -3.1103002757419500e-09 0.0000000000000000e+00  2.7081727380736027e-06 -3.1102926181846360e-09 0.0000000000000000e+00  2.7081727399899842e-06 -3.1102960045274915e-09 0.0000000000000000e+00  2.7081727422336322e-06 -3.1102996210464681e-09 0.0000000000000000e+00  2.7081727557979230e-06 -3.1102887212367675e-09 0.0000000000000000e+00  2.7081727311092842e-06 -3.1102802062923755e-09 0.0000000000000000e+00  2.7081727502948380e-06 -3.1102762457018394e-09 0.0000000000000000e+00  2.7081727534261765e-06 -3.1102979818954136e-09 0.0000000000000000e+00  2.7081727341239626e-06 -3.1102851372438560e-09 0.0000000000000000e+00  2.7081727400150293e-06 -3.1102960121169067e-09 0.0000000000000000e+00  2.7081727221764341e-06 -3.1103870475317902e-09 0.0000000000000000e+00  2.7081726934140684e-06 -3.1103118316023852e-09 0.0000000000000000e+00  2.7081727422751029e-06 -3.1102684488245463e-09 0.0000000000000000e+00  2.7081727499142288e-06 -3.1102817782228953e-09 0.0000000000000000e+00  2.7081727635708936e-06 -3.1102504024420156e-09 0.0000000000000000e+00  2.7081727521223692e-06 -3.1102712772369638e-09 0.0000000000000000e+00  2.7081727506915476e-06 -3.1102810428085617e-09 0.0000000000000000e+00  2.7081727574864052e-06 -3.1103098808516264e-09 0.0000000000000000e+00  2.7081727425245779e-06 -3.1102975335236052e-09 0.0000000000000000e+00  2.7081727446000119e-06 -3.1102863512792386e-09 0.0000000000000000e+00  2.7081727502832912e-06 -3.1103172590642506e-09 0.0000000000000000e+00  2.7081727700967065e-06 -3.1101874004837646e-09 0.0000000000000000e+00  2.7081728288333050e-06 -3.1102772907643135e-09 0.0000000000000000e+00  2.7081727356471582e-06 -3.1103107975445632e-09 0.0000000000000000e+00  2.7081727473326892e-06 -3.1102901418126640e-09 0.0000000000000000e+00  2.7081727456418759e-06 -3.1102860268317385e-09 0.0000000000000000e+00  2.7081727483615971e-06 -3.1102861231088914e-09 0.0000000000000000e+00  2.7081727421894510e-06 -3.1102917927815221e-09 0.0000000000000000e+00  2.7081727585068563e-06 -3.1102947964010107e-09 0.0000000000000000e+00  2.7081727597932622e-06 6.7238926325298330e-10 0.0000000000000000e+00  4.1704817212669110e-04 -7.9364109877065950e-09 0.0000000000000000e+00  4.1704817213201637e-04 -7.9364431709470426e-09 0.0000000000000000e+00  4.1704817213161554e-04 -7.9364240209009104e-09 0.0000000000000000e+00  4.1704817212896673e-04 -7.9364229885236018e-09 0.0000000000000000e+00  4.1704817213654021e-04 -7.9364205778000713e-09 0.0000000000000000e+00  4.1704817212599482e-04 -7.9363977317087331e-09 0.0000000000000000e+00  4.1704817214461166e-04 -7.9364137170771440e-09 0.0000000000000000e+00  4.1704817212543104e-04 -7.9364325110712827e-09 0.0000000000000000e+00  4.1704817211827899e-04 -7.9364205778000713e-09 0.0000000000000000e+00  4.1704817212759109e-04 -7.9364226269421773e-09 0.0000000000000000e+00  4.1704817214493139e-04 -7.9363921979408447e-09 0.0000000000000000e+00  4.1704817206866687e-04 -7.9364919618879481e-09 0.0000000000000000e+00  4.1704817209838648e-04 -7.9364730105760742e-09 0.0000000000000000e+00  4.1704817212037822e-04 -7.9364222886710994e-09 0.0000000000000000e+00  4.1704817213731270e-04 -7.9364067403445843e-09 0.0000000000000000e+00  4.1704817213888902e-04 -7.9364423792626163e-09 0.0000000000000000e+00  4.1704817212897031e-04 -7.9364240802067693e-09 0.0000000000000000e+00  4.1704817211913822e-04 -7.9364395383276637e-09 0.0000000000000000e+00  4.1704817210944784e-04 -7.9364330860236948e-09 0.0000000000000000e+00  4.1704817213565669e-04 -7.9364217832160466e-09 0.0000000000000000e+00  4.1704817211804805e-04 -7.9364328954209529e-09 0.0000000000000000e+00  4.1704817213355919e-04 -7.9364285359524375e-09 0.0000000000000000e+00  4.1704817218698293e-04 -7.9363554708090922e-09 0.0000000000000000e+00  4.1704817217705099e-04 -7.9364039651122834e-09 0.0000000000000000e+00  4.1704817213649369e-04 -7.9364440368993178e-09 0.0000000000000000e+00  4.1704817210928412e-04 -7.9364258957033071e-09 0.0000000000000000e+00  4.1704817213303834e-04 -7.9364173823310083e-09 0.0000000000000000e+00  4.1704817211649287e-04 -7.9364344398669476e-09 0.0000000000000000e+00  4.1704817211653657e-04 -7.9364322946645291e-09 0.0000000000000000e+00  4.1704817213785838e-04 -7.9364165634331074e-09 0.0000000000000000e+00  4.1704817212669131e-04 2.2421884401047121e-09 0.0000000000000000e+00  7.5927669242773421e-04 -1.1614361305491670e-08 0.0000000000000000e+00  7.5927669241053887e-04 -1.1614363295219497e-08 0.0000000000000000e+00  7.5927669240949056e-04 -1.1614360308459352e-08 0.0000000000000000e+00  7.5927669241986377e-04 -1.1614380610145032e-08 0.0000000000000000e+00  7.5927669241350546e-04 -1.1614378846690199e-08 0.0000000000000000e+00  7.5927669241637372e-04 -1.1614392658341674e-08 0.0000000000000000e+00  7.5927669238942327e-04 -1.1614362737831160e-08 0.0000000000000000e+00  7.5927669243307336e-04 -1.1614361183085245e-08 0.0000000000000000e+00  7.5927669241142109e-04 -1.1614361259304658e-08 0.0000000000000000e+00  7.5927669242179527e-04 -1.1614368382729771e-08 0.0000000000000000e+00  7.5927669240519278e-04 -1.1614334442648123e-08 0.0000000000000000e+00  7.5927669236893164e-04 -1.1614454191151771e-08 0.0000000000000000e+00  7.5927669237067287e-04 -1.1614367228379718e-08 0.0000000000000000e+00  7.5927669241110320e-04 -1.1614376929170236e-08 0.0000000000000000e+00  7.5927669241494463e-04 -1.1614354005124762e-08 0.0000000000000000e+00  7.5927669241209253e-04 -1.1614373518812303e-08 0.0000000000000000e+00  7.5927669241180316e-04 -1.1614386596892588e-08 0.0000000000000000e+00  7.5927669240590412e-04 -1.1614364837930768e-08 0.0000000000000000e+00  7.5927669241066139e-04 -1.1614375955556686e-08 0.0000000000000000e+00  7.5927669240285350e-04 -1.1614364377253265e-08 0.0000000000000000e+00  7.5927669241662396e-04 -1.1614364292143395e-08 0.0000000000000000e+00  7.5927669240508891e-04 -1.1614353325655261e-08 0.0000000000000000e+00  7.5927669249212823e-04 -1.1614275540112497e-08 0.0000000000000000e+00  7.5927669244545419e-04 -1.1614364566880225e-08 0.0000000000000000e+00  7.5927669242113608e-04 -1.1614355468472434e-08 0.0000000000000000e+00  7.5927669241560632e-04 -1.1614368000006405e-08 0.0000000000000000e+00  7.5927669241187363e-04 -1.1614370306212846e-08 0.0000000000000000e+00  7.5927669240119663e-04 -1.1614367523282709e-08 0.0000000000000000e+00  7.5927669240228636e-04 -1.1614376408753194e-08 0.0000000000000000e+00  7.5927669241515324e-04 -1.1614342224509216e-08 0.0000000000000000e+00  7.5927669242773464e-04 3.5468365020870080e-09 0.0000000000000000e+00  9.7021943769104836e-04 -1.3151614641727580e-08 0.0000000000000000e+00  9.7021943768663024e-04 -1.3151597725354763e-08 0.0000000000000000e+00  9.7021943769488167e-04 -1.3151594019551738e-08 0.0000000000000000e+00  9.7021943769436255e-04 -1.3151593243046142e-08 0.0000000000000000e+00  9.7021943769698350e-04 -1.3151590834382595e-08 0.0000000000000000e+00  9.7021943769453364e-04 -1.3151601289994666e-08 0.0000000000000000e+00  9.7021943770134005e-04 -1.3151624455925645e-08 0.0000000000000000e+00  9.7021943766874980e-04 -1.3151628724646439e-08 0.0000000000000000e+00  9.7021943769203998e-04 -1.3151627496462218e-08 0.0000000000000000e+00  9.7021943768145187e-04 -1.3151619842428561e-08 0.0000000000000000e+00  9.7021943769056785e-04 -1.3151652968057537e-08 0.0000000000000000e+00  9.7021943765329666e-04 -1.3151608077533947e-08 0.0000000000000000e+00  9.7021943770771038e-04 -1.3151614181592178e-08 0.0000000000000000e+00  9.7021943770371271e-04 -1.3151626942651748e-08 0.0000000000000000e+00  9.7021943767866157e-04 -1.3151622955823519e-08 0.0000000000000000e+00  9.7021943769926228e-04 -1.3151619736176748e-08 0.0000000000000000e+00  9.7021943767924270e-04 -1.3151593730720279e-08 0.0000000000000000e+00  9.7021943770245677e-04 -1.3151591805177221e-08 0.0000000000000000e+00  9.7021943768222990e-04 -1.3151606065905236e-08 0.0000000000000000e+00  9.7021943770797124e-04 -1.3151599513637827e-08 0.0000000000000000e+00  9.7021943769230170e-04 -1.3151608963543962e-08 0.0000000000000000e+00  9.7021943768109929e-04 -1.3151633596834161e-08 0.0000000000000000e+00  9.7021943773639447e-04 -1.3151648860449186e-08 0.0000000000000000e+00  9.7021943767342661e-04 -1.3151596544224917e-08 0.0000000000000000e+00  9.7021943769993904e-04 -1.3151610055335550e-08 0.0000000000000000e+00  9.7021943768683277e-04 -1.3151630235156905e-08 0.0000000000000000e+00  9.7021943768364652e-04 -1.3151614890226718e-08 0.0000000000000000e+00  9.7021943769212671e-04 -1.3151620433101904e-08 0.0000000000000000e+00  9.7021943768975903e-04 -1.3151608552197658e-08 0.0000000000000000e+00  9.7021943769323802e-04 -1.3151613462115616e-08 0.0000000000000000e+00  9.7021943769104836e-04 4.2537497778418001e-09 0.0000000000000000e+00  1.0134025563615027e-03 -1.2066566785476004e-08 0.0000000000000000e+00  1.0134025563485909e-03 -1.2066580472769491e-08 0.0000000000000000e+00  1.0134025563295337e-03 -1.2066581212195372e-08 0.0000000000000000e+00  1.0134025563595813e-03 -1.2066580859829666e-08 0.0000000000000000e+00  1.0134025563513700e-03 -1.2066577660999576e-08 0.0000000000000000e+00  1.0134025563512286e-03 -1.2066593451320017e-08 0.0000000000000000e+00  1.0134025563226503e-03 -1.2066584662343526e-08 0.0000000000000000e+00  1.0134025563415785e-03 -1.2066566839686113e-08 0.0000000000000000e+00  1.0134025563567428e-03 -1.2066559555799078e-08 0.0000000000000000e+00  1.0134025563421456e-03 -1.2066571831895016e-08 0.0000000000000000e+00  1.0134025563343281e-03 -1.2066565214033376e-08 0.0000000000000000e+00  1.0134025563649928e-03 -1.2066588373025461e-08 0.0000000000000000e+00  1.0134025563187641e-03 -1.2066589828350037e-08 0.0000000000000000e+00  1.0134025563566661e-03 -1.2066592271924893e-08 0.0000000000000000e+00  1.0134025563426653e-03 -1.2066591365206616e-08 0.0000000000000000e+00  1.0134025563483529e-03 -1.2066586223160973e-08 0.0000000000000000e+00  1.0134025563438703e-03 -1.2066584283306446e-08 0.0000000000000000e+00  1.0134025563508654e-03 -1.2066572144470503e-08 0.0000000000000000e+00  1.0134025563533597e-03 -1.2066582875795186e-08 0.0000000000000000e+00  1.0134025563396103e-03 -1.2066582343560339e-08 0.0000000000000000e+00  1.0134025563379593e-03 -1.2066581162538913e-08 0.0000000000000000e+00  1.0134025563434189e-03 -1.2066554419608126e-08 0.0000000000000000e+00  1.0134025563677429e-03 -1.2066585234151751e-08 0.0000000000000000e+00  1.0134025563402942e-03 -1.2066597459073347e-08 0.0000000000000000e+00  1.0134025563396723e-03 -1.2066589601860203e-08 0.0000000000000000e+00  1.0134025563476102e-03 -1.2066565626247042e-08 0.0000000000000000e+00  1.0134025563432515e-03 -1.2066597965287341e-08 0.0000000000000000e+00  1.0134025563408584e-03 -1.2066592205571720e-08 0.0000000000000000e+00  1.0134025563454641e-03 -1.2066592737047625e-08 0.0000000000000000e+00  1.0134025563249380e-03 -1.2066595528651379e-08 0.0000000000000000e+00  1.0134025563615029e-03 4.1422797855123251e-09 0.0000000000000000e+00  8.8135925805485598e-04 -8.6143918581532350e-09 0.0000000000000000e+00  8.8135925805217378e-04 -8.6143782132520538e-09 0.0000000000000000e+00  8.8135925803740727e-04 -8.6143918429744046e-09 0.0000000000000000e+00  8.8135925804109301e-04 -8.6143639807132952e-09 0.0000000000000000e+00  8.8135925805889464e-04 -8.6143615710739668e-09 0.0000000000000000e+00  8.8135925806222997e-04 -8.6143615222848691e-09 0.0000000000000000e+00  8.8135925804743429e-04 -8.6143635395514312e-09 0.0000000000000000e+00  8.8135925804369065e-04 -8.6143701720498012e-09 0.0000000000000000e+00  8.8135925804817773e-04 -8.6143685566969844e-09 0.0000000000000000e+00  8.8135925807137304e-04 -8.6143709132104063e-09 0.0000000000000000e+00  8.8135925804942998e-04 -8.6143835531645938e-09 0.0000000000000000e+00  8.8135925803155203e-04 -8.6143792528935170e-09 0.0000000000000000e+00  8.8135925805002359e-04 -8.6143843069019441e-09 0.0000000000000000e+00  8.8135925803717557e-04 -8.6143746606467952e-09 0.0000000000000000e+00  8.8135925804849378e-04 -8.6143771890062615e-09 0.0000000000000000e+00  8.8135925804169399e-04 -8.6143914180755732e-09 0.0000000000000000e+00  8.8135925804669227e-04 -8.6143618148026152e-09 0.0000000000000000e+00  8.8135925805630936e-04 -8.6143759020582827e-09 0.0000000000000000e+00  8.8135925803936230e-04 -8.6143820584834788e-09 0.0000000000000000e+00  8.8135925803394714e-04 -8.6143732207178900e-09 0.0000000000000000e+00  8.8135925804994953e-04 -8.6143635051822223e-09 0.0000000000000000e+00  8.8135925805453603e-04 -8.6143705188860761e-09 0.0000000000000000e+00  8.8135925806494828e-04 -8.6143701167554904e-09 0.0000000000000000e+00  8.8135925805150710e-04 -8.6143919165917321e-09 0.0000000000000000e+00  8.8135925804395379e-04 -8.6143741569264659e-09 0.0000000000000000e+00  8.8135925804565794e-04 -8.6143702743984862e-09 0.0000000000000000e+00  8.8135925804727123e-04 -8.6143713557817331e-09 0.0000000000000000e+00  8.8135925804760853e-04 -8.6143669754965360e-09 0.0000000000000000e+00  8.8135925805024726e-04 -8.6143759127918842e-09 0.0000000000000000e+00  8.8135925804694033e-04 -8.6143748705483358e-09 0.0000000000000000e+00  8.8135925805485642e-04 3.2069573138528924e-09 0.0000000000000000e+00  5.9692091345343455e-04 -3.6976316031950805e-09 0.0000000000000000e+00  5.9692091345392960e-04 -3.6976228842038397e-09 0.0000000000000000e+00  5.9692091345720389e-04 -3.6976320541689742e-09 0.0000000000000000e+00  5.9692091345376860e-04 -3.6976397060342267e-09 0.0000000000000000e+00  5.9692091345570780e-04 -3.6976515995152184e-09 0.0000000000000000e+00  5.9692091344832980e-04 -3.6976358493644688e-09 0.0000000000000000e+00  5.9692091344399408e-04 -3.6976426318622094e-09 0.0000000000000000e+00  5.9692091345345873e-04 -3.6976148064639738e-09 0.0000000000000000e+00  5.9692091346742336e-04 -3.6976195959812809e-09 0.0000000000000000e+00  5.9692091344771994e-04 -3.6976296966255602e-09 0.0000000000000000e+00  5.9692091344411410e-04 -3.6976276861894718e-09 0.0000000000000000e+00  5.9692091345304261e-04 -3.6976476692281331e-09 0.0000000000000000e+00  5.9692091344511742e-04 -3.6976527654120246e-09 0.0000000000000000e+00  5.9692091344754365e-04 -3.6976519560008927e-09 0.0000000000000000e+00  5.9692091344174534e-04 -3.6976348521695207e-09 0.0000000000000000e+00  5.9692091348049407e-04 -3.6976233624996281e-09 0.0000000000000000e+00  5.9692091343349000e-04 -3.6976522243951405e-09 0.0000000000000000e+00  5.9692091344942040e-04 -3.6976264009220064e-09 0.0000000000000000e+00  5.9692091346283133e-04 -3.6976250311951918e-09 0.0000000000000000e+00  5.9692091343290020e-04 -3.6976482084560836e-09 0.0000000000000000e+00  5.9692091344938159e-04 -3.6976509472591915e-09 0.0000000000000000e+00  5.9692091345132296e-04 -3.6976571394630592e-09 0.0000000000000000e+00  5.9692091346306465e-04 -3.6976404971765520e-09 0.0000000000000000e+00  5.9692091344542588e-04 -3.6976254680744572e-09 0.0000000000000000e+00  5.9692091345122733e-04 -3.6976137155397479e-09 0.0000000000000000e+00  5.9692091345839250e-04 -3.6976454655330074e-09 0.0000000000000000e+00  5.9692091344147190e-04 -3.6976429530571030e-09 0.0000000000000000e+00  5.9692091343596068e-04 -3.6976442613096544e-09 0.0000000000000000e+00  5.9692091345570422e-04 -3.6976427275972612e-09 0.0000000000000000e+00  5.9692091343604937e-04 -3.6976545347757600e-09 0.0000000000000000e+00  5.9692091345343477e-04 1.6731210342667278e-09 0.0000000000000000e+00  2.0926937864355829e-04 1.4918655929894867e-09 0.0000000000000000e+00  2.0926937865193716e-04 1.4918909646620231e-09 0.0000000000000000e+00  2.0926937866033916e-04 1.4918951315491275e-09 0.0000000000000000e+00  2.0926937863837217e-04 1.4918881091852089e-09 0.0000000000000000e+00  2.0926937865147242e-04 1.4919034437070556e-09 0.0000000000000000e+00  2.0926937865079268e-04 1.4918649203911165e-09 0.0000000000000000e+00  2.0926937863735158e-04 1.4919045174331246e-09 0.0000000000000000e+00  2.0926937866491224e-04 1.4918928459289752e-09 0.0000000000000000e+00  2.0926937864611131e-04 1.4918795697378478e-09 0.0000000000000000e+00  2.0926937865302017e-04 1.4918865870737789e-09 0.0000000000000000e+00  2.0926937864333133e-04 1.4918761466269862e-09 0.0000000000000000e+00  2.0926937862016700e-04 1.4918889808973081e-09 0.0000000000000000e+00  2.0926937866805383e-04 1.4919256258329834e-09 0.0000000000000000e+00  2.0926937864952899e-04 1.4918846318777912e-09 0.0000000000000000e+00  2.0926937864980971e-04 1.4918743993267650e-09 0.0000000000000000e+00  2.0926937864078010e-04 1.4918822368074295e-09 0.0000000000000000e+00  2.0926937865486435e-04 1.4919045327474803e-09 0.0000000000000000e+00  2.0926937865256787e-04 1.4918916972032209e-09 0.0000000000000000e+00  2.0926937865014988e-04 1.4918914353955013e-09 0.0000000000000000e+00  2.0926937864741458e-04 1.4918569512476507e-09 0.0000000000000000e+00  2.0926937863278863e-04 1.4918799230928884e-09 0.0000000000000000e+00  2.0926937865846747e-04 1.4918953220298967e-09 0.0000000000000000e+00  2.0926937865044354e-04 1.4919081226763987e-09 0.0000000000000000e+00  2.0926937864670122e-04 1.4919097676685924e-09 0.0000000000000000e+00  2.0926937865760646e-04 1.4918766456852462e-09 0.0000000000000000e+00  2.0926937864959946e-04 1.4918982547290106e-09 0.0000000000000000e+00  2.0926937865191738e-04 1.4918951265889026e-09 0.0000000000000000e+00  2.0926937864618964e-04 1.4918746813684077e-09 0.0000000000000000e+00  2.0926937862473979e-04 1.4918904253934150e-09 0.0000000000000000e+00  2.0926937865310645e-04 1.4918875996237403e-09 0.0000000000000000e+00  2.0926937864355829e-04 -8.5106016828236100e-11 0.0000000000000000e+00  -2.1456691628818505e-04 5.9050031932868403e-09 0.0000000000000000e+00  -2.1456691629209544e-04 5.9049874816794780e-09 0.0000000000000000e+00  -2.1456691627883077e-04 5.9049916122729147e-09 0.0000000000000000e+00  -2.1456691629260193e-04 5.9050008648542547e-09 0.0000000000000000e+00  -2.1456691626904178e-04 5.9049918005446220e-09 0.0000000000000000e+00  -2.1456691629142155e-04 5.9050143345483648e-09 0.0000000000000000e+00  -2.1456691628701655e-04 5.9049952257561253e-09 0.0000000000000000e+00  -2.1456691627958505e-04 5.9049951249795334e-09 0.0000000000000000e+00  -2.1456691627584471e-04 5.9049754623768241e-09 0.0000000000000000e+00  -2.1456691630955744e-04 5.9049860633261959e-09 0.0000000000000000e+00  -2.1456691627695526e-04 5.9050219629406403e-09 0.0000000000000000e+00  -2.1456691628580241e-04 5.9049869934090296e-09 0.0000000000000000e+00  -2.1456691627622321e-04 5.9049881084567539e-09 0.0000000000000000e+00  -2.1456691628834025e-04 5.9049728708625814e-09 0.0000000000000000e+00  -2.1456691628930503e-04 5.9049794576076196e-09 0.0000000000000000e+00  -2.1456691629777704e-04 5.9049857247840676e-09 0.0000000000000000e+00  -2.1456691627496922e-04 5.9049505210105775e-09 0.0000000000000000e+00  -2.1456691630359156e-04 5.9049668153766076e-09 0.0000000000000000e+00  -2.1456691627013980e-04 5.9050030065330161e-09 0.0000000000000000e+00  -2.1456691627579544e-04 5.9050069208281195e-09 0.0000000000000000e+00  -2.1456691629459724e-04 5.9049911335976556e-09 0.0000000000000000e+00  -2.1456691628287376e-04 5.9049868415665153e-09 0.0000000000000000e+00  -2.1456691628177487e-04 5.9050044478171741e-09 0.0000000000000000e+00  -2.1456691628498698e-04 5.9049885850720289e-09 0.0000000000000000e+00  -2.1456691627671381e-04 5.9049973393540504e-09 0.0000000000000000e+00  -2.1456691627767571e-04 5.9049709940544107e-09 0.0000000000000000e+00  -2.1456691630240149e-04 5.9049938670339627e-09 0.0000000000000000e+00  -2.1456691628744936e-04 5.9049768420240886e-09 0.0000000000000000e+00  -2.1456691629332178e-04 5.9049775730474034e-09 0.0000000000000000e+00  -2.1456691627333376e-04 5.9049890960023027e-09 0.0000000000000000e+00  -2.1456691628818521e-04 -1.6806176829176715e-09 0.0000000000000000e+00  -6.0130276341896656e-04 8.9166761548138684e-09 0.0000000000000000e+00  -6.0130276339928656e-04 8.9166771601945430e-09 0.0