<?xml version="1.0"?>
<VTKFile type="UnstructuredGrid"  version="0.1"  >
<UnstructuredGrid>
<Piece  NumberOfPoints="961" NumberOfCells="1800">
<Points>
<DataArray  type="Float64"  NumberOfComponents="3"  format="ascii">0 0 0  0.03333333333333333 0 0  0.06666666666666667 0 0  0.1 0 0  0.1333333333333333 0 0  0.1666666666666667 0 0  0.2 0 0  0.2333333333333333 0 0  0.2666666666666667 0 0  0.3 0 0  0.3333333333333333 0 0  0.3666666666666666 0 0  0.4 0 0  0.4333333333333333 0 0  0.4666666666666667 0 0  0.5 0 0  0.5333333333333333 0 0  0.5666666666666667 0 0  0.6 0 0  0.6333333333333333 0 0  0.6666666666666666 0 0  0.7 0 0  0.7333333333333333 0 0  0.7666666666666667 0 0  0.8 0 0  0.8333333333333334 0 0  0.8666666666666667 0 0  0.9 0 0  0.9333333333333333 0 0  0.9666666666666667 0 0  1 0 0  0 0.03333333333333333 0  0.03333333333333333 0.03333333333333333 0  0.06666666666666667 0.03333333333333333 0  0.1 0.03333333333333333 0  0.1333333333333333 0.03333333333333333 0  0.1666666666666667 0.03333333333333333 0  0.2 0.03333333333333333 0  0.2333333333333333 0.03333333333333333 0  0.2666666666666667 0.03333333333333333 0  0.3 0.03333333333333333 0  0.3333333333333333 0.03333333333333333 0  0.3666666666666666 0.03333333333333333 0  0.4 0.03333333333333333 0  0.4333333333333333 0.03333333333333333 0  0.4666666666666667 0.03333333333333333 0  0.5 0.03333333333333333 0  0.5333333333333333 0.03333333333333333 0  0.5666666666666667 0.03333333333333333 0  0.6 0.03333333333333333 0  0.6333333333333333 0.03333333333333333 0  0.6666666666666666 0.03333333333333333 0  0.7 0.03333333333333333 0  0.7333333333333333 0.03333333333333333 0  0.7666666666666667 0.03333333333333333 0  0.8 0.03333333333333333 0  0.8333333333333334 0.03333333333333333 0  0.8666666666666667 0.03333333333333333 0  0.9 0.03333333333333333 0  0.9333333333333333 0.03333333333333333 0  0.9666666666666667 0.03333333333333333 0  1 0.03333333333333333 0  0 0.06666666666666667 0  0.03333333333333333 0.06666666666666667 0  0.06666666666666667 0.06666666666666667 0  0.1 0.06666666666666667 0  0.1333333333333333 0.06666666666666667 0  0.1666666666666667 0.06666666666666667 0  0.2 0.06666666666666667 0  0.2333333333333333 0.06666666666666667 0  0.2666666666666667 0.06666666666666667 0  0.3 0.06666666666666667 0  0.3333333333333333 0.06666666666666667 0  0.3666666666666666 0.06666666666666667 0  0.4 0.06666666666666667 0  0.4333333333333333 0.06666666666666667 0  0.4666666666666667 0.06666666666666667 0  0.5 0.06666666666666667 0  0.5333333333333333 0.06666666666666667 0  0.5666666666666667 0.06666666666666667 0  0.6 0.06666666666666667 0  0.6333333333333333 0.06666666666666667 0  0.6666666666666666 0.06666666666666667 0  0.7 0.06666666666666667 0  0.7333333333333333 0.06666666666666667 0  0.7666666666666667 0.06666666666666667 0  0.8 0.06666666666666667 0  0.8333333333333334 0.06666666666666667 0  0.8666666666666667 0.06666666666666667 0  0.9 0.06666666666666667 0  0.9333333333333333 0.06666666666666667 0  0.9666666666666667 0.06666666666666667 0  1 0.06666666666666667 0  0 0.1 0  0.03333333333333333 0.1 0  0.06666666666666667 0.1 0  0.1 0.1 0  0.1333333333333333 0.1 0  0.1666666666666667 0.1 0  0.2 0.1 0  0.2333333333333333 0.1 0  0.2666666666666667 0.1 0  0.3 0.1 0  0.3333333333333333 0.1 0  0.3666666666666666 0.1 0  0.4 0.1 0  0.4333333333333333 0.1 0  0.4666666666666667 0.1 0  0.5 0.1 0  0.5333333333333333 0.1 0  0.5666666666666667 0.1 0  0.6 0.1 0  0.6333333333333333 0.1 0  0.6666666666666666 0.1 0  0.7 0.1 0  0.7333333333333333 0.1 0  0.7666666666666667 0.1 0  0.8 0.1 0  0.8333333333333334 0.1 0  0.8666666666666667 0.1 0  0.9 0.1 0  0.9333333333333333 0.1 0  0.9666666666666667 0.1 0  1 0.1 0  0 0.1333333333333333 0  0.03333333333333333 0.1333333333333333 0  0.06666666666666667 0.1333333333333333 0  0.1 0.1333333333333333 0  0.1333333333333333 0.1333333333333333 0  0.1666666666666667 0.1333333333333333 0  0.2 0.1333333333333333 0  0.2333333333333333 0.1333333333333333 0  0.2666666666666667 0.1333333333333333 0  0.3 0.1333333333333333 0  0.3333333333333333 0.1333333333333333 0  0.3666666666666666 0.1333333333333333 0  0.4 0.1333333333333333 0  0.4333333333333333 0.1333333333333333 0  0.4666666666666667 0.1333333333333333 0  0.5 0.1333333333333333 0  0.5333333333333333 0.1333333333333333 0  0.5666666666666667 0.1333333333333333 0  0.6 0.1333333333333333 0  0.6333333333333333 0.1333333333333333 0  0.6666666666666666 0.1333333333333333 0  0.7 0.1333333333333333 0  0.7333333333333333 0.1333333333333333 0  0.7666666666666667 0.1333333333333333 0  0.8 0.1333333333333333 0  0.8333333333333334 0.1333333333333333 0  0.8666666666666667 0.1333333333333333 0  0.9 0.1333333333333333 0  0.9333333333333333 0.1333333333333333 0  0.9666666666666667 0.1333333333333333 0  1 0.1333333333333333 0  0 0.1666666666666667 0  0.03333333333333333 0.1666666666666667 0  0.06666666666666667 0.1666666666666667 0  0.1 0.1666666666666667 0  0.1333333333333333 0.1666666666666667 0  0.1666666666666667 0.1666666666666667 0  0.2 0.1666666666666667 0  0.2333333333333333 0.1666666666666667 0  0.2666666666666667 0.1666666666666667 0  0.3 0.1666666666666667 0  0.3333333333333333 0.1666666666666667 0  0.3666666666666666 0.1666666666666667 0  0.4 0.1666666666666667 0  0.4333333333333333 0.1666666666666667 0  0.4666666666666667 0.1666666666666667 0  0.5 0.1666666666666667 0  0.5333333333333333 0.1666666666666667 0  0.5666666666666667 0.1666666666666667 0  0.6 0.1666666666666667 0  0.6333333333333333 0.1666666666666667 0  0.6666666666666666 0.1666666666666667 0  0.7 0.1666666666666667 0  0.7333333333333333 0.1666666666666667 0  0.7666666666666667 0.1666666666666667 0  0.8 0.1666666666666667 0  0.8333333333333334 0.1666666666666667 0  0.8666666666666667 0.1666666666666667 0  0.9 0.1666666666666667 0  0.9333333333333333 0.1666666666666667 0  0.9666666666666667 0.1666666666666667 0  1 0.1666666666666667 0  0 0.2 0  0.03333333333333333 0.2 0  0.06666666666666667 0.2 0  0.1 0.2 0  0.1333333333333333 0.2 0  0.1666666666666667 0.2 0  0.2 0.2 0  0.2333333333333333 0.2 0  0.2666666666666667 0.2 0  0.3 0.2 0  0.3333333333333333 0.2 0  0.3666666666666666 0.2 0  0.4 0.2 0  0.4333333333333333 0.2 0  0.4666666666666667 0.2 0  0.5 0.2 0  0.5333333333333333 0.2 0  0.5666666666666667 0.2 0  0.6 0.2 0  0.6333333333333333 0.2 0  0.6666666666666666 0.2 0  0.7 0.2 0  0.7333333333333333 0.2 0  0.7666666666666667 0.2 0  0.8 0.2 0  0.8333333333333334 0.2 0  0.8666666666666667 0.2 0  0.9 0.2 0  0.9333333333333333 0.2 0  0.9666666666666667 0.2 0  1 0.2 0  0 0.2333333333333333 0  0.03333333333333333 0.2333333333333333 0  0.06666666666666667 0.2333333333333333 0  0.1 0.2333333333333333 0  0.1333333333333333 0.2333333333333333 0  0.1666666666666667 0.2333333333333333 0  0.2 0.2333333333333333 0  0.2333333333333333 0.2333333333333333 0  0.2666666666666667 0.2333333333333333 0  0.3 0.2333333333333333 0  0.3333333333333333 0.2333333333333333 0  0.3666666666666666 0.2333333333333333 0  0.4 0.2333333333333333 0  0.4333333333333333 0.2333333333333333 0  0.4666666666666667 0.2333333333333333 0  0.5 0.2333333333333333 0  0.5333333333333333 0.2333333333333333 0  0.5666666666666667 0.2333333333333333 0  0.6 0.2333333333333333 0  0.6333333333333333 0.2333333333333333 0  0.6666666666666666 0.2333333333333333 0  0.7 0.2333333333333333 0  0.7333333333333333 0.2333333333333333 0  0.7666666666666667 0.2333333333333333 0  0.8 0.2333333333333333 0  0.8333333333333334 0.2333333333333333 0  0.8666666666666667 0.2333333333333333 0  0.9 0.2333333333333333 0  0.9333333333333333 0.2333333333333333 0  0.9666666666666667 0.2333333333333333 0  1 0.2333333333333333 0  0 0.2666666666666667 0  0.03333333333333333 0.2666666666666667 0  0.06666666666666667 0.2666666666666667 0  0.1 0.2666666666666667 0  0.1333333333333333 0.2666666666666667 0  0.1666666666666667 0.2666666666666667 0  0.2 0.2666666666666667 0  0.2333333333333333 0.2666666666666667 0  0.2666666666666667 0.2666666666666667 0  0.3 0.2666666666666667 0  0.3333333333333333 0.2666666666666667 0  0.3666666666666666 0.2666666666666667 0  0.4 0.2666666666666667 0  0.4333333333333333 0.2666666666666667 0  0.4666666666666667 0.2666666666666667 0  0.5 0.2666666666666667 0  0.5333333333333333 0.2666666666666667 0  0.5666666666666667 0.2666666666666667 0  0.6 0.2666666666666667 0  0.6333333333333333 0.2666666666666667 0  0.6666666666666666 0.2666666666666667 0  0.7 0.2666666666666667 0  0.7333333333333333 0.2666666666666667 0  0.7666666666666667 0.2666666666666667 0  0.8 0.2666666666666667 0  0.8333333333333334 0.2666666666666667 0  0.8666666666666667 0.2666666666666667 0  0.9 0.2666666666666667 0  0.9333333333333333 0.2666666666666667 0  0.9666666666666667 0.2666666666666667 0  1 0.2666666666666667 0  0 0.3 0  0.03333333333333333 0.3 0  0.06666666666666667 0.3 0  0.1 0.3 0  0.1333333333333333 0.3 0  0.1666666666666667 0.3 0  0.2 0.3 0  0.2333333333333333 0.3 0  0.2666666666666667 0.3 0  0.3 0.3 0  0.3333333333333333 0.3 0  0.3666666666666666 0.3 0  0.4 0.3 0  0.4333333333333333 0.3 0  0.4666666666666667 0.3 0  0.5 0.3 0  0.5333333333333333 0.3 0  0.5666666666666667 0.3 0  0.6 0.3 0  0.6333333333333333 0.3 0  0.6666666666666666 0.3 0  0.7 0.3 0  0.7333333333333333 0.3 0  0.7666666666666667 0.3 0  0.8 0.3 0  0.8333333333333334 0.3 0  0.8666666666666667 0.3 0  0.9 0.3 0  0.9333333333333333 0.3 0  0.9666666666666667 0.3 0  1 0.3 0  0 0.3333333333333333 0  0.03333333333333333 0.3333333333333333 0  0.06666666666666667 0.3333333333333333 0  0.1 0.3333333333333333 0  0.1333333333333333 0.3333333333333333 0  0.1666666666666667 0.3333333333333333 0  0.2 0.3333333333333333 0  0.2333333333333333 0.3333333333333333 0  0.2666666666666667 0.3333333333333333 0  0.3 0.3333333333333333 0  0.3333333333333333 0.3333333333333333 0  0.3666666666666666 0.3333333333333333 0  0.4 0.3333333333333333 0  0.4333333333333333 0.3333333333333333 0  0.4666666666666667 0.3333333333333333 0  0.5 0.3333333333333333 0  0.5333333333333333 0.33333333333333
[...]
<PointData  Scalars="q_f"> 
<DataArray  type="Float64"  Name="q_f"  format="ascii">9.9873977896869759e-01  9.9873977896877497e-01  9.9873977896862076e-01  9.9873977896866217e-01  9.9873977896871902e-01  9.9873977896881416e-01  9.9873977896872046e-01  9.9873977896873201e-01  9.9873977896874289e-01  9.9873977896870547e-01  9.9873977896878208e-01  9.9873977896869115e-01  9.9873977897008559e-01  9.9873977896882837e-01  9.9873977896865451e-01  9.9873977896876187e-01  9.9873977896871990e-01  9.9873977896873900e-01  9.9873977896871413e-01  9.9873977896872412e-01  9.9873977896878896e-01  9.9873977896875110e-01  9.9873977896855637e-01  9.9873977896730837e-01  9.9873977896861954e-01  9.9873977896867971e-01  9.9873977896866539e-01  9.9873977896861588e-01  9.9873977896872401e-01  9.9873977896861599e-01  9.9873977896869759e-01  9.9884873012973596e-01  9.9884873012979125e-01  9.9884873012975373e-01  9.9884873012977238e-01  9.9884873012961894e-01  9.9884873012977404e-01  9.9884873012973230e-01  9.9884873012975106e-01  9.9884873012976272e-01  9.9884873012971731e-01  9.9884873012981290e-01  9.9884873013114817e-01  9.9884873013103781e-01  9.9884873012974096e-01  9.9884873012976771e-01  9.9884873012973618e-01  9.9884873012970621e-01  9.9884873012968867e-01  9.9884873012975850e-01  9.9884873012972220e-01  9.9884873012965270e-01  9.9884873012960707e-01  9.9884873012828668e-01  9.9884873012832898e-01  9.9884873012977426e-01  9.9884873012976894e-01  9.9884873012978592e-01  9.9884873012969499e-01  9.9884873012969677e-01  9.9884873012969444e-01  9.9884873012973596e-01  9.9915674569848612e-01  9.9915674569848389e-01  9.9915674569858348e-01  9.9915674569851376e-01  9.9915674569857538e-01  9.9915674569861335e-01  9.9915674569843815e-01  9.9915674569847723e-01  9.9915674569849944e-01  9.9915674569856705e-01  9.9915674569854140e-01  9.9915674570000668e-01  9.9915674569966284e-01  9.9915674569863921e-01  9.9915674569858348e-01  9.9915674569841451e-01  9.9915674569851132e-01  9.9915674569854807e-01  9.9915674569861568e-01  9.9915674569841906e-01  9.9915674569840363e-01  9.9915674569845458e-01  9.9915674569698676e-01  9.9915674569732260e-01  9.9915674569840962e-01  9.9915674569854362e-01  9.9915674569854585e-01  9.9915674569852797e-01  9.9915674569858703e-01  9.9915674569850454e-01  9.9915674569848612e-01  9.9961056868736609e-01  9.9961056868734977e-01  9.9961056868734410e-01  9.9961056868722820e-01  9.9961056868744913e-01  9.9961056868729825e-01  9.9961056868727061e-01  9.9961056868731524e-01  9.9961056868727816e-01  9.9961056868739273e-01  9.9961056868733678e-01  9.9961056868865727e-01  9.9961056868724374e-01  9.9961056868733900e-01  9.9961056868740128e-01  9.9961056868725651e-01  9.9961056868734111e-01  9.9961056868743492e-01  9.9961056868739129e-01  9.9961056868732834e-01  9.9961056868732401e-01  9.9961056868719034e-01  9.9961056868593656e-01  9.9961056868734666e-01  9.9961056868724651e-01  9.9961056868729758e-01  9.9961056868738929e-01  9.9961056868726195e-01  9.9961056868736575e-01  9.9961056868746745e-01  9.9961056868736609e-01  1.0001317305124120e+00  1.0001317305124122e+00  1.0001317305123754e+00  1.0001317305122803e+00  1.0001317305122808e+00  1.0001317305122859e+00  1.0001317305122630e+00  1.0001317305124331e+00  1.0001317305122635e+00  1.0001317305123092e+00  1.0001317305124025e+00  1.0001317305123301e+00  1.0001317305122794e+00  1.0001317305123489e+00  1.0001317305122541e+00  1.0001317305123014e+00  1.0001317305123816e+00  1.0001317305123569e+00  1.0001317305122781e+00  1.0001317305123285e+00  1.0001317305122792e+00  1.0001317305122068e+00  1.0001317305121882e+00  1.0001317305123514e+00  1.0001317305122195e+00  1.0001317305123354e+00  1.0001317305123041e+00  1.0001317305122988e+00  1.0001317305123361e+00  1.0001317305123276e+00  1.0001317305124120e+00  1.0006301179104395e+00  1.0006301179104036e+00  1.0006301179105275e+00  1.0006301179104622e+00  1.0006301179104546e+00  1.0006301179105013e+00  1.0006301179104529e+00  1.0006301179104000e+00  1.0006301179104748e+00  1.0006301179104455e+00  1.0006301179103654e+00  1.0006301179104420e+00  1.0006301179105377e+00  1.0006301179104313e+00  1.0006301179103991e+00  1.0006301179104582e+00  1.0006301179104111e+00  1.0006301179104464e+00  1.0006301179104529e+00  1.0006301179104795e+00  1.0006301179104971e+00  1.0006301179104098e+00  1.0006301179105415e+00  1.0006301179103354e+00  1.0006301179104364e+00  1.0006301179104380e+00  1.0006301179104737e+00  1.0006301179104415e+00  1.0006301179104165e+00  1.0006301179104673e+00  1.0006301179104395e+00  1.0010195541204949e+00  1.0010195541204605e+00  1.0010195541204749e+00  1.0010195541204228e+00  1.0010195541205065e+00  1.0010195541205247e+00  1.0010195541205822e+00  1.0010195541205928e+00  1.0010195541204661e+00  1.0010195541205174e+00  1.0010195541205456e+00  1.0010195541206399e+00  1.0010195541204439e+00  1.0010195541205829e+00  1.0010195541206270e+00  1.0010195541204094e+00  1.0010195541205227e+00  1.0010195541204916e+00  1.0010195541204567e+00  1.0010195541205515e+00  1.0010195541204574e+00  1.0010195541204716e+00  1.0010195541204672e+00  1.0010195541204103e+00  1.0010195541205369e+00  1.0010195541205198e+00  1.0010195541205662e+00  1.0010195541205476e+00  1.0010195541205400e+00  1.0010195541205336e+00  1.0010195541204949e+00  1.0012327003332899e+00  1.0012327003332435e+00  1.0012327003332981e+00  1.0012327003332755e+00  1.0012327003332688e+00  1.0012327003333150e+00  1.0012327003333328e+00  1.0012327003332775e+00  1.0012327003332724e+00  1.0012327003331518e+00  1.0012327003332850e+00  1.0012327003333239e+00  1.0012327003332695e+00  1.0012327003332369e+00  1.0012327003332049e+00  1.0012327003331896e+00  1.0012327003332555e+00  1.0012327003331642e+00  1.0012327003331682e+00  1.0012327003331472e+00  1.0012327003333099e+00  1.0012327003332588e+00  1.0012327003332828e+00  1.0012327003332715e+00  1.0012327003332047e+00  1.0012327003332504e+00  1.0012327003331014e+00  1.0012327003333499e+00  1.0012327003332435e+00  1.0012327003332977e+00  1.0012327003332899e+00  1.0012327003333503e+00  1.0012327003333361e+00  1.0012327003332204e+00  1.0012327003333106e+00  1.0012327003332466e+00  1.0012327003334542e+00  1.0012327003334753e+00  1.0012327003334176e+00  1.0012327003334003e+00  1.0012327003332961e+00  1.0012327003333497e+00  1.0012327003333321e+00  1.0012327003332493e+00  1.0012327003333212e+00  1.0012327003333386e+00  1.0012327003333541e+00  1.0012327003332555e+00  1.0012327003332862e+00  1.0012327003333683e+00  1.0012327003333683e+00  1.0012327003332679e+00  1.0012327003334875e+00  1.0012327003334278e+00  1.0012327003333228e+00  1.0012327003333088e+00  1.0012327003333183e+00  1.0012327003333585e+00  1.0012327003333708e+00  1.0012327003333021e+00  1.0012327003333614e+00  1.0012327003333503e+00  1.0010195541205387e+00  1.0010195541205780e+00  1.0010195541204858e+00  1.0010195541206230e+00  1.0010195541206404e+00  1.0010195541204570e+00  1.0010195541205951e+00  1.0010195541205931e+00  1.0010195541206692e+00  1.0010195541205256e+00  1.0010195541206384e+00  1.0010195541204789e+00  1.0010195541206071e+00  1.0010195541205715e+00  1.0010195541206126e+00  1.0010195541205922e+00  1.0010195541206350e+00  1.0010195541206033e+00  1.0010195541205260e+00  1.0010195541205587e+00  1.0010195541207043e+00  1.0010195541206204e+00  1.0010195541205398e+00  1.0010195541206375e+00  1.0010195541206330e+00  1.0010195541206139e+00  1.0010195541206108e+00  1.0010195541205866e+00  1.0010195541205384e+00  1.0010195541206974e+00  1.0010195541205387e+00  1.0006301179103489e+00  1.0006301179102437e+00  1.0006301179103430e+00  1.0006301179101862e+00  1.0006301179103143e+00  1.0006301179103370e+00  1.0006301179104733e+00  1.0006301179104371e+00  1.0006301179103634e+00  1.0006301179103740e+00  1.0006301179104713e+00  1.0006301179104646e+00  1.0006301179104584e+00  1.0006301179103732e+00  1.0006301179104800e+00  1.0006301179103154e+00  1.0006301179104131e+00  1.0006301179105008e+00  1.0006301179104073e+00  1.0006301179104411e+00  1.0006301179103367e+00  1.0006301179102943e+00  1.0006301179104453e+00  1.0006301179103965e+00  1.0006301179104586e+00  1.0006301179104662e+00  1.0006301179103569e+00  1.0006301179103518e+00  1.0006301179103632e+00  1.0006301179103381e+00  1.0006301179103489e+00  1.0001317305123218e+00  1.0001317305111359e+00  1.0001317305109341e+00  1.0001317305110307e+00  1.0001317305124551e+00  1.0001317305125259e+00  1.0001317305125608e+00  1.0001317305124320e+00  1.0001317305125490e+00  1.0001317305124995e+00  1.0001317305125672e+00  1.0001317305124802e+00  1.0001317305124813e+00  1.0001317305124902e+00  1.0001317305124338e+00  1.0001317305125081e+00  1.0001317305124551e+00  1.0001317305124899e+00  1.0001317305125808e+00  1.0001317305124875e+00  1.0001317305124502e+00  1.0001317305125159e+00  1.0001317305125370e+00  1.0001317305125028e+00  1.0001317305126065e+00  1.0001317305124844e+00  1.0001317305124775e+00  1.0001317305124775e+00  1.0001317305124793e+00  1.0001317305126050e+00  1.0001317305123218e+00  9.9961056868592579e-01  9.9961056868590636e-01  9.9961056868601095e-01  9.9961056868742693e-01  9.9961056868739850e-01  9.9961056868729159e-01  9.9961056868721310e-01  9.9961056868730325e-01  9.9961056868726494e-01  9.9961056868735920e-01  9.9961056868725384e-01  9.9961056868722875e-01  9.9961056868724751e-01  9.9961056868739517e-01  9.9961056868722342e-01  9.9961056868735032e-01  9.9961056868721554e-01  9.9961056868726983e-01  9.9961056868726872e-01  9.9961056868740683e-01  9.9961056868730114e-01  9.9961056868733600e-01  9.9961056868721432e-01  9.9961056868728537e-01  9.9961056868726272e-01  9.9961056868737885e-01  9.9961056868729670e-01  9.9961056868723552e-01  9.9961056868731013e-01  9.9961056868721188e-01  9.9961056868592579e-01  9.9915674569838464e-01  9.9915674569848500e-01  9.9915674569850399e-01  9.9915674569850665e-01  9.9915674569856539e-01  9.9915674569855206e-01  9.9915674569860158e-01  9.9915674569849922e-01  9.9915674569852697e-01  9.9915674569857138e-01  9.9915674569853830e-01  9.9915674569859569e-01  9.9915674569861246e-01  9.9915674569859148e-01  9.9915674569857404e-01  9.9915674569858570e-01  9.9915674569851853e-01  9.9915674569859003e-01  9.9915674569851176e-01  9.9915674569857826e-01  9.9915674569860247e-01  9.9915674569853297e-01  9.9915674569861901e-01  9.9915674569862933e-01  9.9915674569863488e-01  9.9915674569854318e-01  9.9915674569855739e-01  9.9915674569858393e-01  9.9915674569851698e-01  9.9915674569852853e-01  9.9915674569838464e-01  9.9884873012970543e-01  9.9884873012969466e-01  9.9884873012976994e-01  9.9884873012969144e-01  9.9884873012976416e-01  9.9884873012978481e-01  9.9884873012974495e-01  9.9884873012974618e-01  9.9884873012979913e-01  9.9884873012978814e-01  9.9884873012966968e-01  9.9884873012980446e-01  9.9884873012972430e-01  9.9884873012976849e-01  9.9884873012967479e-01  9.9884873012975728e-01  9.9884873012971587e-01  9.9884873012975006e-01  9.9884873012954423e-01  9.9884873012982311e-01  9.9884873012971942e-01  9.9884873012968489e-01  9.9884873012973940e-01  9.9884873012970699e-01  9.9884873012971320e-01  9.9884873012971509e-01  9.9884873012964048e-01  9.9884873012968511e-01  9.9884873012973718e-01  9.9884873012978803e-01  9.9884873012970543e-01  9.9873977896871968e-01  9.9873977896875110e-01  9.9873977896864929e-01  9.9873977896873556e-01  9.9873977896871524e-01  9.9873977896874877e-01  9.9873977896873323e-01  9.9873977896873234e-01  9.9873977896880328e-01  9.9873977896866373e-01  9.9873977896873356e-01  9.9873977896871213e-01  9.9873977896878352e-01  9.9873977896870214e-01  9.9873977896860944e-01  9.9873977896878485e-01  9.9873977896866029e-01  9.9873977896871879e-01  9.9873977896868638e-01  9.9873977896862354e-01  9.9873977896862665e-01  9.9873977896872690e-01  9.9873977896861221e-01  9.9873977896880139e-01  9.9873977896870336e-01  9.9873977896872645e-01  9.9873977896865362e-01  9.9873977896872745e-01  9.9873977896865385e-01  9.9873977896861643e-01  9.9873977896871968e-01  9.9884873012968778e-01  9.9884873012975106e-01  9.9884873012969155e-01  9.9884873012965247e-01  9.9884873012963837e-01  9.9884873012977082e-01  9.9884873012968478e-01  9.9884873012968944e-01  9.9884873012955067e-01  9.9884873012961362e-01  9.9884873012963471e-01  9.9884873012964792e-01  9.9884873012958220e-01  9.9884873012968389e-01  9.9884873012962050e-01  9.9884873012969833e-01  9.9884873012969955e-01  9.9884873012971653e-01  9.9884873012951725e-01  9.9884873012951569e-01  9.9884873012967823e-01  9.9884873012968622e-01  9.9884873012977993e-01  9.9884873012959563e-01  9.9884873012961950e-01  9.9884873012976350e-01  9.9884873012961661e-01  9.9884873012958342e-01  9.9884873012956288e-01  9.9884873012967956e-01  9.9884873012968778e-01  9.9915674569856450e-01  9.9915674569852819e-01  9.9915674569864932e-01  9.9915674569856372e-01  9.9915674569846658e-01  9.9915674569849866e-01  9.9915674569856261e-01  9.9915674569858193e-01  9.9915674569858715e-01  9.9915674569854029e-01  9.9915674569851298e-01  9.9915674569862067e-01  9.9915674569856583e-01  9.9915674569855539e-01  9.9915674569852675e-01  9.9915674569848101e-01  9.9915674569852952e-01  9.9915674569849966e-01  9.9915674569846036e-01  9.9915674569846569e-01  9.9915674569848356e-01  9.9915674569848367e-01  9.9915674569849278e-01  9.9915674569855428e-01  9.9915674569847346e-01  9.9915674569849600e-01  9.9915674569844459e-01  9.9915674569849311e-01  9.9915674569846302e-01  9.9915674569849533e-01  9.9915674569856450e-01  9.9961056868739073e-01  9.9961056868741538e-01  9.9961056868731202e-01  9.9961056868739862e-01  9.9961056868737008e-01  9.9961056868737330e-01  9.9961056868733467e-01  9.9961056868742282e-01  9.9961056868738962e-01  9.9961056868725628e-01  9.9961056868737042e-01  9.9961056868731846e-01  9.9961056868735010e-01  9.9961056868731857e-01  9.9961056868738540e-01  9.9961056868733456e-01  9.9961056868737297e-01  9.9961056868733666e-01  9.9961056868740272e-01  9.9961056868731635e-01  9.9961056868745868e-01  9.9961056868730880e-01  9.9961056868738130e-01  9.9961056868729625e-01  9.9961056868722131e-01  9.9961056868736453e-01  9.9961056868734433e-01  9.9961056868729103e-01  9.9961056868745568e-01  9.9961056868732023e-01  9.9961056868739073e-01  1.0001317305123587e+00  1.0001317305124626e+00  1.0001317305123094e+00  1.0001317305122863e+00  1.0001317305122071e+00  1.0001317305122990e+00  1.0001317305123640e+00  1.0001317305123061e+00  1.0001317305123829e+00  1.0001317305123041e+00  1.0001317305123119e+00  1.0001317305122654e+00  1.0001317305122579e+00  1.0001317305122333e+00  1.0001317305122386e+00  1.0001317305123414e+00  1.0001317305122674e+00  1.0001317305123008e+00  1.0001317305123314e+00  1.0001317305122102e+00  1.0001317305123052e+00  1.0001317305123005e+00  1.0001317305123438e+00  1.0001317305122222e+00  1.0001317305122439e+00  1.0001317305122734e+00  1.0001317305122122e+00  1.0001317305123167e+00  1.0001317305122692e+00  1.0001317305122741e+00  1.0001317305123587e+00  1.0006301179104660e+00  1.0006301179104511e+00  1.0006301179104182e+00  1.0006301179105783e+00  1.0006301179104393e+00  1.0006301179103614e+00  1.0006301179104502e+00  1.0006301179104340e+00  1.0006301179105008e+00  1.0006301179104886e+00  1.0006301179104962e+00  1.0006301179103714e+00  1.0006301179103858e+00  1.0006301179104351e+00  1.0006301179103523e+00  1.0006301179104595e+00  1.0006301179104113e+00  1.0006301179104264e+00  1.0006301179104535e+00  1.0006301179105033e+00  1.0006301179105455e+00  1.0006301179104216e+00  1.0006301179103967e+00  1.0006301179104842e+00  1.0006301179103487e+00  1.0006301179104697e+00  1.0006301179103438e+00  1.0006301179103667e+00  1.0006301179104484e+00  1.0006301179105443e+00  1.0006301179104660e+00  1.0010195541206084e+00  1.0010195541205908e+00  1.0010195541205074e+00  1.0010195541205615e+00  1.0010195541204208e+00  1.0010195541204228e+00  1.0010195541205644e+00  1.0010195541205660e+00  1.0010195541205222e+00  1.0010195541205322e+00  1.0010195541205180e+00  1.0010195541205091e+00  1.0010195541205067e+00  1.0010195541205489e+00  1.0010195541204399e+00  1.0010195541204365e+00  1.0010195541204985e+00  1.0010195541204543e+00  1.0010195541205051e+00  1.0010195541204130e+00  1.0010195541204887e+00  1.0010195541204607e+00  1.0010195541204836e+00  1.0010195541204781e+00  1.0010195541205258e+00  1.0010195541204048e+00  1.0010195541204323e+00  1.0010195541204823e+00  1.0010195541204709e+00  1.0010195541206051e+00  1.0010195541206084e+00  1.0012327003332795e+00  1.0012327003344663e+00  1.0012327003348622e+00  1.0012327003345953e+00  1.0012327003333563e+00  1.0012327003332335e+00  1.0012327003332626e+00  1.0012327003333121e+00  1.0012327003333397e+00  1.0012327003334018e+00  1.0012327003332369e+00  1.0012327003332508e+00  1.0012327003331418e+00  1.0012327003332824e+00  1.0012327003333612e+00  1.0012327003331751e+00  1.0012327003332937e+00  1.0012327003333206e+00  1.0012327003332828e+00  1.0012327003332555e+00  1.0012327003332362e+00  1.0012327003332295e+00  1.0012327003333250e+00  1.0012327003333685e+00  1.0012327003334116e+00  1.0012327003332853e+00  1.0012327003333357e+00  1.0012327003332733e+00  1.0012327003332646e+00  1.0012327003331480e+00  1.0012327003332795e+00  1.0012327003346531e+00  1.0012327003346264e+00  1.0012327003344814e+00  1.0012327003332455e+00  1.0012327003332866e+00  1.0012327003332329e+00  1.0012327003333557e+00  1.0012327003332195e+00  1.0012327003333683e+00  1.0012327003332941e+00  1.0012327003333206e+00  1.0012327003334187e+00  1.0012327003334898e+00  1.0012327003333770e+00  1.0012327003333292e+00  1.0012327003333525e+00  1.0012327003332213e+00  1.0012327003334025e+00  1.0012327003332451e+00  1.0012327003333494e+00  1.0012327003333643e+00  1.0012327003334736e+00  1.0012327003333741e+00  1.0012327003333465e+00  1.0012327003333774e+00  1.0012327003334238e+00  1.0012327003333916e+00  1.0012327003333645e+00  1.0012327003333419e+00  1.0012327003334081e+00  1.0012327003346531e+00  1.0010195541206099e+00  1.0010195541205964e+00  1.0010195541206104e+00  1.0010195541206304e+00  1.0010195541207307e+00  1.0010195541204931e+00  1.0010195541205555e+00  1.0010195541205564e+00  1.0010195541205349e+00  1.0010195541206182e+00  1.0010195541205433e+00  1.0010195541206000e+00  1.0010195541206195e+00  1.0010195541204969e+00  1.0010195541206639e+00  1.0010195541206317e+00  1.0010195541205724e+00  1.0010195541205480e+00  1.0010195541206068e+00  1.0010195541204894e+00  1.0010195541205635e+00  1.0010195541207083e+00  1.0010195541206308e+00  1.0010195541205691e+00  1.0010195541205580e+00  1.0010195541205096e+00  1.0010195541206266e+00  1.0010195541205458e+00  1.0010195541205824e+00  1.0010195541207390e+00  1.0010195541206099e+00  1.0006301179103567e+00  1.0006301179103401e+00  1.0006301179104293e+00  1.0006301179104216e+00  1.0006301179104664e+00  1.0006301179105199e+00  1.0006301179103809e+00  1.0006301179104777e+00  1.0006301179104129e+00  1.0006301179103572e+00  1.0006301179104111e+00  1.0006301179104160e+00  1.0006301179104951e+00  1.0006301179103101e+00  1.0006301179104962e+00  1.0006301179103900e+00  1.0006301179104073e+00  1.0006301179104020e+00  1.0006301179104620e+00  1.0006301179103463e+00  1.0006301179103367e+00  1.0006301179104768e+00  1.0006301179105053e+00  1.0006301179104651e+00  1.0006301179104335e+00  1.0006301179103356e+00  1.0006301179104506e+00  1.0006301179105184e+00  1.0006301179103483e+00  1.0006301179103938e+00  1.0006301179103567e+00  1.0001317305124764e+00  1.0001317305125514e+00  1.0001317305124398e+00  1.0001317305125388e+00  1.0001317305124353e+00  1.0001317305125501e+00  1.0001317305125790e+00  1.0001317305124990e+00  1.0001317305125097e+00  1.0001317305124411e+00  1.0001317305124602e+00  1.0001317305124235e+00  1.0001317305124513e+00  1.0001317305125721e+00  1.0001317305124950e+00  1.0001317305124400e+00  1.0001317305124535e+00  1.0001317305125519e+00  1.0001317305125359e+00  1.0001317305125206e+00  1.0001317305124120e+00  1.0001317305125703e+00  1.0001317305124962e+00  1.0001317305125763e+0