<?xml version="1.0"?>
<VTKFile type="UnstructuredGrid"  version="0.1"  >
<UnstructuredGrid>
<Piece  NumberOfPoints="2601" NumberOfCells="5000">
<Points>
<DataArray  type="Float64"  NumberOfComponents="3"  format="ascii">0 0 0  0.02 0 0  0.04 0 0  0.06 0 0  0.08 0 0  0.1 0 0  0.12 0 0  0.14 0 0  0.16 0 0  0.18 0 0  0.2 0 0  0.22 0 0  0.24 0 0  0.26 0 0  0.28 0 0  0.3 0 0  0.32 0 0  0.34 0 0  0.36 0 0  0.38 0 0  0.4 0 0  0.42 0 0  0.44 0 0  0.46 0 0  0.48 0 0  0.5 0 0  0.52 0 0  0.54 0 0  0.5600000000000001 0 0  0.58 0 0  0.6 0 0  0.62 0 0  0.64 0 0  0.66 0 0  0.68 0 0  0.7 0 0  0.72 0 0  0.74 0 0  0.76 0 0  0.78 0 0  0.8 0 0  0.82 0 0  0.84 0 0  0.86 0 0  0.88 0 0  0.9 0 0  0.92 0 0  0.9399999999999999 0 0  0.96 0 0  0.98 0 0  1 0 0  0 0.02 0  0.02 0.02 0  0.04 0.02 0  0.06 0.02 0  0.08 0.02 0  0.1 0.02 0  0.12 0.02 0  0.14 0.02 0  0.16 0.02 0  0.18 0.02 0  0.2 0.02 0  0.22 0.02 0  0.24 0.02 0  0.26 0.02 0  0.28 0.02 0  0.3 0.02 0  0.32 0.02 0  0.34 0.02 0  0.36 0.02 0  0.38 0.02 0  0.4 0.02 0  0.42 0.02 0  0.44 0.02 0  0.46 0.02 0  0.48 0.02 0  0.5 0.02 0  0.52 0.02 0  0.54 0.02 0  0.5600000000000001 0.02 0  0.58 0.02 0  0.6 0.02 0  0.62 0.02 0  0.64 0.02 0  0.66 0.02 0  0.68 0.02 0  0.7 0.02 0  0.72 0.02 0  0.74 0.02 0  0.76 0.02 0  0.78 0.02 0  0.8 0.02 0  0.82 0.02 0  0.84 0.02 0  0.86 0.02 0  0.88 0.02 0  0.9 0.02 0  0.92 0.02 0  0.9399999999999999 0.02 0  0.96 0.02 0  0.98 0.02 0  1 0.02 0  0 0.04 0  0.02 0.04 0  0.04 0.04 0  0.06 0.04 0  0.08 0.04 0  0.1 0.04 0  0.12 0.04 0  0.14 0.04 0  0.16 0.04 0  0.18 0.04 0  0.2 0.04 0  0.22 0.04 0  0.24 0.04 0  0.26 0.04 0  0.28 0.04 0  0.3 0.04 0  0.32 0.04 0  0.34 0.04 0  0.36 0.04 0  0.38 0.04 0  0.4 0.04 0  0.42 0.04 0  0.44 0.04 0  0.46 0.04 0  0.48 0.04 0  0.5 0.04 0  0.52 0.04 0  0.54 0.04 0  0.5600000000000001 0.04 0  0.58 0.04 0  0.6 0.04 0  0.62 0.04 0  0.64 0.04 0  0.66 0.04 0  0.68 0.04 0  0.7 0.04 0  0.72 0.04 0  0.74 0.04 0  0.76 0.04 0  0.78 0.04 0  0.8 0.04 0  0.82 0.04 0  0.84 0.04 0  0.86 0.04 0  0.88 0.04 0  0.9 0.04 0  0.92 0.04 0  0.9399999999999999 0.04 0  0.96 0.04 0  0.98 0.04 0  1 0.04 0  0 0.06 0  0.02 0.06 0  0.04 0.06 0  0.06 0.06 0  0.08 0.06 0  0.1 0.06 0  0.12 0.06 0  0.14 0.06 0  0.16 0.06 0  0.18 0.06 0  0.2 0.06 0  0.22 0.06 0  0.24 0.06 0  0.26 0.06 0  0.28 0.06 0  0.3 0.06 0  0.32 0.06 0  0.34 0.06 0  0.36 0.06 0  0.38 0.06 0  0.4 0.06 0  0.42 0.06 0  0.44 0.06 0  0.46 0.06 0  0.48 0.06 0  0.5 0.06 0  0.52 0.06 0  0.54 0.06 0  0.5600000000000001 0.06 0  0.58 0.06 0  0.6 0.06 0  0.62 0.06 0  0.64 0.06 0  0.66 0.06 0  0.68 0.06 0  0.7 0.06 0  0.72 0.06 0  0.74 0.06 0  0.76 0.06 0  0.78 0.06 0  0.8 0.06 0  0.82 0.06 0  0.84 0.06 0  0.86 0.06 0  0.88 0.06 0  0.9 0.06 0  0.92 0.06 0  0.9399999999999999 0.06 0  0.96 0.06 0  0.98 0.06 0  1 0.06 0  0 0.08 0  0.02 0.08 0  0.04 0.08 0  0.06 0.08 0  0.08 0.08 0  0.1 0.08 0  0.12 0.08 0  0.14 0.08 0  0.16 0.08 0  0.18 0.08 0  0.2 0.08 0  0.22 0.08 0  0.24 0.08 0  0.26 0.08 0  0.28 0.08 0  0.3 0.08 0  0.32 0.08 0  0.34 0.08 0  0.36 0.08 0  0.38 0.08 0  0.4 0.08 0  0.42 0.08 0  0.44 0.08 0  0.46 0.08 0  0.48 0.08 0  0.5 0.08 0  0.52 0.08 0  0.54 0.08 0  0.5600000000000001 0.08 0  0.58 0.08 0  0.6 0.08 0  0.62 0.08 0  0.64 0.08 0  0.66 0.08 0  0.68 0.08 0  0.7 0.08 0  0.72 0.08 0  0.74 0.08 0  0.76 0.08 0  0.78 0.08 0  0.8 0.08 0  0.82 0.08 0  0.84 0.08 0  0.86 0.08 0  0.88 0.08 0  0.9 0.08 0  0.92 0.08 0  0.9399999999999999 0.08 0  0.96 0.08 0  0.98 0.08 0  1 0.08 0  0 0.1 0  0.02 0.1 0  0.04 0.1 0  0.06 0.1 0  0.08 0.1 0  0.1 0.1 0  0.12 0.1 0  0.14 0.1 0  0.16 0.1 0  0.18 0.1 0  0.2 0.1 0  0.22 0.1 0  0.24 0.1 0  0.26 0.1 0  0.28 0.1 0  0.3 0.1 0  0.32 0.1 0  0.34 0.1 0  0.36 0.1 0  0.38 0.1 0  0.4 0.1 0  0.42 0.1 0  0.44 0.1 0  0.46 0.1 0  0.48 0.1 0  0.5 0.1 0  0.52 0.1 0  0.54 0.1 0  0.5600000000000001 0.1 0  0.58 0.1 0  0.6 0.1 0  0.62 0.1 0  0.64 0.1 0  0.66 0.1 0  0.68 0.1 0  0.7 0.1 0  0.72 0.1 0  0.74 0.1 0  0.76 0.1 0  0.78 0.1 0  0.8 0.1 0  0.82 0.1 0  0.84 0.1 0  0.86 0.1 0  0.88 0.1 0  0.9 0.1 0  0.92 0.1 0  0.9399999999999999 0.1 0  0.96 0.1 0  0.98 0.1 0  1 0.1 0  0 0.12 0  0.02 0.12 0  0.04 0.12 0  0.06 0.12 0  0.08 0.12 0  0.1 0.12 0  0.12 0.12 0  0.14 0.12 0  0.16 0.12 0  0.18 0.12 0  0.2 0.12 0  0.22 0.12 0  0.24 0.12 0  0.26 0.12 0  0.28 0.12 0  0.3 0.12 0  0.32 0.12 0  0.34 0.12 0  0.36 0.12 0  0.38 0.12 0  0.4 0.12 0  0.42 0.12 0  0.44 0.12 0  0.46 0.12 0  0.48 0.12 0  0.5 0.12 0  0.52 0.12 0  0.54 0.12 0  0.5600000000000001 0.12 0  0.58 0.12 0  0.6 0.12 0  0.62 0.12 0  0.64 0.12 0  0.66 0.12 0  0.68 0.12 0  0.7 0.12 0  0.72 0.12 0  0.74 0.12 0  0.76 0.12 0  0.78 0.12 0  0.8 0.12 0  0.82 0.12 0  0.84 0.12 0  0.86 0.12 0  0.88 0.12 0  0.9 0.12 0  0.92 0.12 0  0.9399999999999999 0.12 0  0.96 0.12 0  0.98 0.12 0  1 0.12 0  0 0.14 0  0.02 0.14 0  0.04 0.14 0  0.06 0.14 0  0.08 0.14 0  0.1 0.14 0  0.12 0.14 0  0.14 0.14 0  0.16 0.14 0  0.18 0.14 0  0.2 0.14 0  0.22 0.14 0  0.24 0.14 0  0.26 0.14 0  0.28 0.14 0  0.3 0.14 0  0.32 0.14 0  0.34 0.14 0  0.36 0.14 0  0.38 0.14 0  0.4 0.14 0  0.42 0.14 0  0.44 0.14 0  0.46 0.14 0  0.48 0.14 0  0.5 0.14 0  0.52 0.14 0  0.54 0.14 0  0.5600000000000001 0.14 0  0.58 0.14 0  0.6 0.14 0  0.62 0.14 0  0.64 0.14 0  0.66 0.14 0  0.68 0.14 0  0.7 0.14 0  0.72 0.14 0  0.74 0.14 0  0.76 0.14 0  0.78 0.14 0  0.8 0.14 0  0.82 0.14 0  0.84 0.14 0  0.86 0.14 0  0.88 0.14 0  0.9 0.14 0  0.92 0.14 0  0.9399999999999999 0.14 0  0.96 0.14 0  0.98 0.14 0  1 0.14 0  0 0.16 0  0.02 0.16 0  0.04 0.16 0  0.06 0.16 0  0.08 0.16 0  0.1 0.16 0  0.12 0.16 0  0.14 0.16 0  0.16 0.16 0  0.18 0.16 0  0.2 0.16 0  0.22 0.16 0  0.24 0.16 0  0.26 0.16 0  0.28 0.16 0  0.3 0.16 0  0.32 0.16 0  0.34 0.16 0  0.36 0.16 0  0.38 0.16 0  0.4 0.16 0  0.42 0.16 0  0.44 0.16 0  0.46 0.16 0  0.48 0.16 0  0.5 0.16 0  0.52 0.16 0  0.54 0.16 0  0.5600000000000001 0.16 0  0.58 0.16 0  0.6 0.16 0  0.62 0.16 0  0.64 0.16 0  0.66 0.16 0  0.68 0.16 0  0.7 0.16 0  0.72 0.16 0  0.74 0.16 0  0.76 0.16 0  0.78 0.16 0  0.8 0.16 0  0.82 0.16 0  0.84 0.16 0  0.86 0.16 0  0.88 0.16 0  0.9 0.16 0  0.92 0.16 0  0.9399999999999999 0.16 0  0.96 0.16 0  0.98 0.16 0  1 0.16 0  0 0.18 0  0.02 0.18 0  0.04 0.18 0  0.06 0.18 0  0.08 0.18 0  0.1 0.18 0  0.12 0.18 0  0.14 0.18 0  0.16 0.18 0  0.18 0.18 0  0.2 0.18 0  0.22 0.18 0  0.24 0.18 0  0.26 0.18 0  0.28 0.18 0  0.3 0.18 0  0.32 0.18 0  0.34 0.18 0  0.36 0.18 0  0.38 0.18 0  0.4 0.18 0  0.42 0.18 0  0.44 0.18 0  0.46 0.18 0  0.48 0.18 0  0.5 0.18 0  0.52 0.18 0  0.54 0.18 0  0.5600000000000001 0.18 0  0.58 0.18 0  0.6 0.18 0  0.62 0.18 0  0.64 0.18 0  0.66 0.18 0  0.68 0.18 0  0.7 0.18 0  0.72 0.18 0  0.74 0.18 0  0.76 0.18 0  0.78 0.18 0  0.8 0.18 0  0.82 0.18 0  0.84 0.18 0  0.86 0.18 0  0.88 0.18 0  0.9 0.18 0  0.92 0.18 0  0.9399999999999999 0.18 0  0.96 0.18 0  0.98 0.18 0  1 0.18 0  0 0.2 0  0.02 0.2 0  0.04 0.2 0  0.06 0.2 0  0.08 0.2 0  0.1 0.2 0  0.12 0.2 0  0.14 0.2 0  0.16 0.2 0  0.18 0.2 0  0.2 0.2 0  0.22 0.2 0  0.24 0.2 0  0.26 0.2 0  0.28 0.2 0  0.3 0.2 0  0.32 0.2 0  0.34 0.2 0  0.36 0.2 0  0.38 0.2 0  0.4 0.2 0  0.42 0.2 0  0.44 0.2 0  0.46 0.2 0  0.48 0.2 0  0.5 0.2 0  0.52 0.2 0  0.54 0.2 0  0.5600000000000001 0.2 0  0.58 0.2 0  0.6 0.2 0  0.62 0.2 0  0.64 0.2 0  0.66 0.2 0  0.68 0.2 0  0.7 0.2 0  0.72 0.2 0  0.74 0.2 0  0.76 0.2 0  0.78 0.2 0  0.8 0.2 0  0.82 0.2 0  0.84 0.2 0  0.86 0.2 0  0.88 0.2 0  0.9 0.2 0  0.92 0.2 0  0.9399999999999999 0.2 0  0.96 0.2 0  0.98 0.2 0  1 0.2 0  0 0.22 0  0.02 0.22 0  0.04 0.22 0  0.06 0.22 0  0.08 0.22 0  0.1 0.22 0  0.12 0.22 0  0.14 0.22 0  0.16 0.22 0  0.18 0.22 0  0.2 0.22 0  0.22 0.22 0  0.24 0.22 0  0.26 0.22 0  0.28 0.22 0  0.3 0.22 0  0.32 0.22 0  0.34 0.22 0  0.36 0.22 0  0.38 0.22 0  0.4 0.22 0  0.42 0.22 0  0.44 0.22 0  0.46 0.22 0  0.48 0.22 0  0.5 0.22 0  0.52 0.22 0  0.54 0.22 0  0.5600000000000001 0.22 0  0.58 0.22 0  0.6 0.22 0  0.62 0.22 0  0.64 0.22 0  0.66 0.22 0  0.68 0.22 0  0.7 0.22 0  0.72 0.22 0  0.74 0.22 0  0.76 0.22 0  0.78 0.22 0  0.8 0.22 0  0.82 0.22 0  0.84 0.22 0  0.86 0.22 0  0.88 0.22 0  0.9 0.22 0  0.92 0.22 0  0.9399999999999999 0.22 0  0.96 0.22 0  0.98 0.22 0  1 0.22 0  0 0.24 0  0.02 0.24 0  0.04 0.24 0  0.06 0.24 0  0.08 0.24 0  0.1 0.24 0  0.12 0.24 0  0.14 0.24 0  0.16 0.24 0  0.18 0.24 0  0.2 0.24 0  0.22 0.24 0  0.24 0.24 0  0.26 0.24 0  0.28 0.24 0  0.3 0.24 0  0.32 0.24 0  0.34 0.24 0  0.36 0.24 0  0.38 0.24 0  0.4 0.24 0  0.42 0.24 0  0.44 0.24 0  0.46 0.24 0  0.48 0.24 0  0.5 0.24 0  0.52 0.24 0  0.54 0.24 0  0.5600000000000001 0.24 0  0.58 0.24 0  0.6 0.24 0  0.62 0.24 0  0.64 0.24 0  0.66 0.24 0  0.68 0.24 0  0.7 0.24 0  0.72 0.24 0  0.74 0.24 0  0.76 0.24 0  0.78 0.24 0  0.8 0.24 0  0.82 0.24 0  0.84 0.24 0  0.86 0.24 0  0.88 0.24 0  0.9 0.24 0  0.92 0.24 0  0.9399999999999999 0.24 0  0.96 0.24 0  0.98 0.24 0  1 0.24 0  0 0.26 0  0.02 0.26 0  0.04 0.26 0  0.06 0.26 0  0.08 0.26 0  0.1 0.26 0  0.12 0.26 0  0.14 0.26 0  0.16 0.26 0  0.18 0.26 0  0.2 0.26 0  0.22 0.26 0  0.24 0.26 0  0.26 0.26 0  0.28 0.26 0  0.3 0.26 0  0.32 0.26 0  0.34 0.26 0  0.36 0.26 0  0.38 0.26 0  0.4 0.26 0  0.42 0.26 0  0.44 0.26 0  0.46 0.26 0  0.48 0.26 0  0.5 0.26 0  0.52 0.26 0  0.54 0.26 0  0.5600000000000001 0.26 0  0.58 0.26 0  0.6 0.26 0  0.62 0.26 0  0.64 0.26 0  0.66 0.26 0  0.68 0.26 0  0.7 0.26 0  0.72 0.26 0  0.74 0.26 0  0.76 0.26 0  0.78 0.26 0  0.8 0.26 0  0.82 0.26 0  0.84 0.26 0  0.86 0.26 0  0.88 0.26 0  0.9 0.26 0  0.92 0.26 0  0.9399999999999999 0.26 0  0.96 0.26 0  0.98 0.26 0  1 0.26 0  0 0.28 0  0.02 0.28 0  0.04 0.28 0  0.06 0.28 0  0.08 0.28 0  0.1 0.28 0  0.12 0.28 0  0.14 0.28 0  0.16 0.28 0  0.18 0.28 0  0.2 0.28 0  0.22 0.28 0  0.24 0.28 0  0.26 0.28 0  0.28 0.28 0  0.3 0.28 0  0.32 0.28 0  0.34 0.28 0  0.36 0.28 0  0.38 0.28 0  0.4 0.28 0  0.42 0.28 0  0.44 0.28 0  0.46 0.28 0  0.48 0.28 0  0.5 0.28 0  0.52 0.28 0  0.54 0.28 0  0.5600000000000001 0.28 0  0.58 0.28 0  0.6 0.28 0  0.62 0.28 0  0.64 0.28 0  0.66 0.28 0  0.68 0.28 0  0.7 0.28 0  0.72 0.28 0  0.74 0.28 0  0.76 0.28 0  0.78 0.28 0  0.8 0.28 0  0.82 0.28 0  0.84 0.28 0  0.86 0.28
[...]
<PointData  Scalars="q_f"> 
<DataArray  type="Float64"  Name="q_f"  format="ascii">9.9999887424277467e-01  9.9999860547946795e-01  9.9999746384116972e-01  9.9999514005411461e-01  9.9999089148571496e-01  9.9998351849110334e-01  9.9997127030727062e-01  9.9995177551673498e-01  9.9992206011438123e-01  9.9987871810539064e-01  9.9981828650979743e-01  9.9973783797322024e-01  9.9963573796438310e-01  9.9951243107095966e-01  9.9937104798763199e-01  9.9921759627523521e-01  9.9906054496905039e-01  9.9890974626072249e-01  9.9877483383491916e-01  9.9866343935896951e-01  9.9857969931083090e-01  9.9852351706254283e-01  9.9849087489737876e-01  9.9847519327631551e-01  9.9846940191260147e-01  9.9846813630349773e-01  9.9846940191262878e-01  9.9847519327626955e-01  9.9849087489740906e-01  9.9852351706246101e-01  9.9857969931085122e-01  9.9866343935896162e-01  9.9877483383486598e-01  9.9890974626062379e-01  9.9906054496899854e-01  9.9921759627530016e-01  9.9937104798759491e-01  9.9951243107100163e-01  9.9963573796436322e-01  9.9973783797321858e-01  9.9981828650979399e-01  9.9987871810543894e-01  9.9992206011441642e-01  9.9995177551675873e-01  9.9997127030724575e-01  9.9998351849112987e-01  9.9999089148582609e-01  9.9999514005407919e-01  9.9999746384114274e-01  9.9999860547948183e-01  9.9999887424277467e-01  9.9999849250887773e-01  9.9999889408560383e-01  9.9999812489888185e-01  9.9999655404641041e-01  9.9999381961233125e-01  9.9998929028603567e-01  9.9998209113979830e-01  9.9997110223179220e-01  9.9995499739342120e-01  9.9993234685532340e-01  9.9990179462097528e-01  9.9986230415108501e-01  9.9981344256319449e-01  9.9975564914374127e-01  9.9969041664426606e-01  9.9962031271350560e-01  9.9954879042686673e-01  9.9947978167611295e-01  9.9941712705978403e-01  9.9936395464329009e-01  9.9932215710306271e-01  9.9929211443830701e-01  9.9927276014810784e-01  9.9926200059812942e-01  9.9925739409670156e-01  9.9925691102141345e-01  9.9925956012844463e-01  9.9926569557815936e-01  9.9927690880559517e-01  9.9929553209516886e-01  9.9932389682692224e-01  9.9936356069273291e-01  9.9941472208279725e-01  9.9947597718023828e-01  9.9954446942381847e-01  9.9961636843445711e-01  9.9968753214197370e-01  9.9975417441294956e-01  9.9981338389680874e-01  9.9986340263050455e-01  9.9990364942051646e-01  9.9993453773356356e-01  9.9995717438004239e-01  9.9997303000464755e-01  9.9998365244893295e-01  9.9999046214854792e-01  9.9999463704239233e-01  9.9999707036883290e-01  9.9999836913600659e-01  9.9999885056892412e-01  9.9999849250887773e-01  9.9999665769363422e-01  9.9999773765108046e-01  9.9999630702742104e-01  9.9999330501950034e-01  9.9998817647495619e-01  9.9997986846368336e-01  9.9996697225778231e-01  9.9994778020776398e-01  9.9992040382327918e-01  9.9988298534719289e-01  9.9983399761374869e-01  9.9977259548378183e-01  9.9969895258769859e-01  9.9961449879486830e-01  9.9952197673714893e-01  9.9942526459854508e-01  9.9932896338612720e-01  9.9923780752071722e-01  9.9915601036583201e-01  9.9908668455347072e-01  9.9903147048093310e-01  9.9899046455269402e-01  9.9896247074632272e-01  9.9894552113143742e-01  9.9893754243458377e-01  9.9893700470042812e-01  9.9894338686862005e-01  9.9895733559071398e-01  9.9898046949468866e-01  9.9901487280622003e-01  9.9906240538943158e-01  9.9912400745471708e-01  9.9919918098045934e-01  9.9928578414843705e-01  9.9938019217482543e-01  9.9947778176159263e-01  9.9957361517371657e-01  9.9966315705219566e-01  9.9974286306517823e-01  9.9981052874130294e-01  9.9986536007931504e-01  9.9990779986745926e-01  9.9993919387831109e-01  9.9996139877553769e-01  9.9997642071141724e-01  9.9998614122362506e-01  9.9999214869581698e-01  9.9999565880546626e-01  9.9999747702651054e-01  9.9999792589702707e-01  9.9999665769363422e-01  9.9999217724349687e-01  9.9999493299011721e-01  9.9999183752170984e-01  9.9998522032326609e-01  9.9997391966190718e-01  9.9995564816593852e-01  9.9992735810876365e-01  9.9988538737416077e-01  9.9982573729408752e-01  9.9974454956288106e-01  9.9963876234083227e-01  9.9950685544325735e-01  9.9934953315562247e-01  9.9917016185425800e-01  9.9897479863665017e-01  9.9877172274168879e-01  9.9857049917212781e-01  9.9838073077075662e-01  9.9821075102611767e-01  9.9806654296857200e-01  9.9795112736714664e-01  9.9786455710611499e-01  9.9780451302310758e-01  9.9776735590949972e-01  9.9774938313228456e-01  9.9774798997782244e-01  9.9776245587829249e-01  9.9779416067565141e-01  9.9784616892642652e-01  9.9792227238175091e-01  9.9802571702069642e-01  9.9815792690700267e-01  9.9831754770374037e-01  9.9850006045233008e-01  9.9869807605574501e-01  9.9890224879610801e-01  9.9910259168961446e-01  9.9928988337711822e-01  9.9945685244164595e-01  9.9959890760706360e-01  9.9971431963043744e-01  9.9980390535337327e-01  9.9987037180384586e-01  9.9991752290333791e-01  9.9994951295496637e-01  9.9997026927172850e-01  9.9998312802425948e-01  9.9999065202628368e-01  9.9999452752665308e-01  9.9999535785158400e-01  9.9999217724349687e-01  9.9998216607011237e-01  9.9998894857607445e-01  9.9998246005886671e-01  9.9996827121083121e-01  9.9994400587820631e-01  9.9990478808832395e-01  9.9984411790847538e-01  9.9975421489106775e-01  9.9962663262061635e-01  9.9945329197124677e-01  9.9922788166902787e-01  9.9894742295477723e-01  9.9861366883727609e-01  9.9823395256076564e-01  9.9782115559961360e-01  9.9739264015391138e-01  9.9696824597663602e-01  9.9656771020899437e-01  9.9620804606516944e-01  9.9590145109591677e-01  9.9565419670038846e-01  9.9546671638618323e-01  9.9533483080874041e-01  9.9525179565400423e-01  9.9521068799934387e-01  9.9520658521637884e-01  9.9523804170435426e-01  9.9530751977762089e-01  9.9542065576621697e-01  9.9558450225260242e-01  9.9580513237259705e-01  9.9608516621908127e-01  9.9642183183529742e-01  9.9680607490383433e-01  9.9722299068462195e-01  9.9765352336890822e-01  9.9807705286805326e-01  9.9847426700284925e-01  9.9882966895219605e-01  9.9913320728624555e-01  9.9938078530239516e-01  9.9957371122392114e-01  9.9971739225697431e-01  9.9981969025208284e-01  9.9988933514848821e-01  9.9993467104623734e-01  9.9996284464052143e-01  9.9997937898633116e-01  9.9998790659301828e-01  9.9998963590716994e-01  9.9998216607011237e-01  9.9996079901115209e-01  9.9997675191406765e-01  9.9996372546801626e-01  9.9993448019406628e-01  9.9988439956879838e-01  9.9980351511442089e-01  9.9967853465372036e-01  9.9949361964354155e-01  9.9923169350334251e-01  9.9887659058314648e-01  9.9841591942389640e-01  9.9784419959515613e-01  9.9716558463374205e-01  9.9639539588414616e-01  9.9555984148070420e-01  9.9469368245469381e-01  9.9383613648011238e-01  9.9302580924880612e-01  9.9229573885889000e-01  9.9166962558454741e-01  9.9116000904904900e-01  9.9076866241205686e-01  9.9048895961316163e-01  9.9030957311721357e-01  9.9021864425073036e-01  9.9020753723671306e-01  9.9027340671863906e-01  9.9042003964494996e-01  9.9065674947059845e-01  9.9099547891364170e-01  9.9144666396009007e-01  9.9201475182003185e-01  9.9269444945839824e-01  9.9346871422502614e-01  9.9430914575543372e-01  9.9517885628316205e-01  9.9603724265271831e-01  9.9684556850939043e-01  9.9757206849994318e-01  9.9819547483859872e-01  9.9870636283442060e-01  9.9910632927058907e-01  9.9940554317890296e-01  9.9961949126304195e-01  9.9976573890676002e-01  9.9986130422629960e-01  9.9992090876326156e-01  9.9995601234651232e-01  9.9997415546584634e-01  9.9997764758794294e-01  9.9996079901115209e-01  9.9991702522987758e-01  9.9995287611942285e-01  9.9992785105821036e-01  9.9986995812584945e-01  9.9977070701276105e-01  9.9961059244710526e-01  9.9936361012855990e-01  9.9899895860995735e-01  9.9848372606228275e-01  9.9778718301317126e-01  9.9688638197003765e-01  9.9577214082949839e-01  9.9445403226332985e-01  9.9296289348479261e-01  9.9134974842350287e-01  9.8968086649480558e-01  9.8802973468406907e-01  9.8646762684099565e-01  9.8505487303251138e-01  9.8383470428029585e-01  9.8283077859255497e-01  9.8204849475352385e-01  9.8147933022071265e-01  9.8110693581097552e-01  9.8091361610384487e-01  9.8088599263648002e-01  9.8101891757339321e-01  9.8131697955795671e-01  9.8179323120298390e-01  9.8246514589009393e-01  9.8334833458266468e-01  9.8444917130906118e-01  9.8575800784536338e-01  9.8724484726273143e-01  9.8885898711667297e-01  9.9053322099648367e-01  9.9219194138089184e-01  9.9376134297437657e-01  9.9517931366435031e-01  9.9640275174818738e-01  9.9741088799863442e-01  9.9820438003824696e-01  9.9880104526441438e-01  9.9922976126764063e-01  9.9952415943274830e-01  9.9971735886283675e-01  9.9983834555524731e-01  9.9990987267209264e-01  9.9994691870948538e-01  9.9995361211972889e-01  9.9991702522987758e-01  9.9983092287164466e-01  9.9990796540442395e-01  9.9986199958619792e-01  9.9975194812036305e-01  9.9956309523388165e-01  9.9925893287944945e-01  9.9879082214476189e-01  9.9810159387596542e-01  9.9713087245325238e-01  9.9582331378448929e-01  9.9413907712913085e-01  9.9206466321816444e-01  9.8962146500671366e-01  9.8686932184660969e-01  9.8390326964990338e-01  9.8084340608086618e-01  9.7781980449041739e-01  9.7495595182925654e-01  9.7235460918746974e-01  9.7008910467128451e-01  9.6820125126825651e-01  9.6670512021593835e-01  9.6559457112069513e-01  9.6485212335072434e-01  9.6445728397206620e-01  9.6439328960238135e-01  9.6465182554006634e-01  9.6523540961911902e-01  9.6615692520535101e-01  9.6743567743041980e-01  9.6908974037883966e-01  9.7112538903398726e-01  9.7352577184140399e-01  9.7624203837670376e-01  9.7919021536870710e-01  9.8225590213616065e-01  9.8530661803852437e-01  9.8820920103046272e-01  9.9084800753543167e-01  9.9313945923318347e-01  9.9503975347596130e-01  9.9654472611231548e-01  9.9768305883007136e-01  9.9850550189314169e-01  9.9907318471315154e-01  9.9944751224029604e-01  9.9968297295384534e-01  9.9982275344318083e-01  9.9989529526835408e-01  9.9990741202854228e-01  9.9983092287164466e-01  9.9966836236827505e-01  9.9982679968943955e-01  9.9974615730400451e-01  9.9954527601665388e-01  9.9920027921648513e-01  9.9864583726876666e-01  9.9779502237180429e-01  9.9654666064202668e-01  9.9479551188944670e-01  9.9244746045439824e-01  9.8943823346701620e-01  9.8575199789448043e-01  9.8143492298246404e-01  9.7659901384971304e-01  9.7141356115197630e-01  9.6608501238327249e-01  9.6082978007532727e-01  9.5584692876392130e-01  9.5129765918593756e-01  9.4729590314149226e-01  9.4391025384427851e-01  9.4117372670275234e-01  9.3909610461308546e-01  9.3767441304814225e-01  9.3689960051357146e-01  9.3676016422710517e-01  9.3724478231414154e-01  9.3834542265276433e-01  9.4006045509822256e-01  9.4239532960434069e-01  9.4535779328907954e-01  9.4894612502586895e-01  9.5313205249637567e-01  9.5784341639888726e-01  9.6295342038772780e-01  9.6828223432925931e-01  9.7361294497643602e-01  9.7871888646228211e-01  9.8339536159980634e-01  9.8748734927526882e-01  9.9090640995288748e-01  9.9363375506984974e-01  9.9571068453130329e-01  9.9722074092589552e-01  9.9826911693931175e-01  9.9896411664029749e-01  9.9940344709671614e-01  9.9966542602798725e-01  9.9980164980648112e-01  9.9982227807071433e-01  9.9966836236827505e-01  9.9937389649811936e-01  9.9968588693668092e-01  9.9955092115123068e-01  9.9919883313866509e-01  9.9859375138484952e-01  9.9762397434499039e-01  9.9614115420709248e-01  9.9397476988369926e-01  9.9095091214501241e-01  9.8691920700854818e-01  9.8178478107564748e-01  9.7553838687734695e-01  9.6827593897459863e-01  9.6019974878377201e-01  9.5159811994109589e-01  9.4280666399833124e-01  9.3416127309465391e-01  9.2595616315031271e-01  9.1841874245464050e-01  9.1170647975288666e-01  9.0592217809980702e-01  9.0113719194713060e-01  8.9741045553745813e-01  8.9479536674855320e-01  8.9333419096981159e-01  8.9304662542410573e-01  8.9392195039646472e-01  8.9592155333595447e-01  8.9899206894097339e-01  9.0308236977496081e-01  9.0815389808126579e-01  9.1417562224026705e-01  9.2110181904807131e-01  9.2883978724423244e-01  9.3722103962692105e-01  9.4599005245132761e-01  9.5481872920880362e-01  9.6334503446135289e-01  9.7122518814495562e-01  9.7818422915314351e-01  9.8405114935918825e-01  9.8877091188989663e-01  9.9239348811519479e-01  9.9504642501655016e-01  9.9690044389924959e-01  9.9813692266680076e-01  9.9892282069185900e-01  9.9939375670473762e-01  9.9963910663974498e-01  9.9967193268220311e-01  9.9937389649811936e-01  9.9886236867050715e-01  9.9945092700147931e-01  9.9923577199522962e-01  9.9864318593074519e-01  9.9762423744733775e-01  9.9599656160770611e-01  9.9351860369868705e-01  9.8991706102152910e-01  9.8492033810042401e-01  9.7830442534854667e-01  9.6994502214014233e-01  9.5986337651745834e-01  9.4825085093301364e-01  9.3546023521890553e-01  9.2196074102069703e-01  9.0826612140721719e-01  8.9485659649917915e-01  8.8211963716821340e-01  8.7032873368690777e-01  8.5966425939152491e-01  8.5026261834610695e-01  8.4226761452150190e-01  8.3585783498476429e-01  8.3123628323549503e-01  8.2858750352661203e-01  8.2802365444083370e-01  8.2954664274417278e-01  8.3304599463693962e-01  8.3833518074933033e-01  8.4521044280550872e-01  8.5350450978283976e-01  8.6310877759630877e-01  8.7395159310680881e-01  8.8594092759384990e-01  8.9889707346018521e-01  9.1250664642459045e-01  9.2632063512587115e-01  9.3980104047762514e-01  9.5240154743278693e-01  9.6365592860568272e-01  9.7324741734601228e-01  9.8104160958532605e-01  9.8707929254641924e-01  9.9153794209773127e-01  9.9467739077090489e-01  9.9678532794378194e-01  9.9813327871279856e-01  9.9894533743480018e-01  9.9936923649736553e-01  9.9941758300768679e-01  9.9886236867050715e-01  9.9801068000438931e-01  9.9907474804569685e-01  9.9874868661238614e-01  9.9779084979109256e-01  9.9614308726496159e-01  9.9352133308969559e-01  9.8955064164585171e-01  9.8381526307338152e-01  9.7591614585340980e-01  9.6554613466638795e-01  9.5257107705559341e-01  9.3709483611273547e-01  9.1948348283873815e-01  9.0033114913194479e-01  8.8036730294493959e-01  8.6032773725982015e-01  8.4083008287849192e-01  8.2229902325974735e-01  8.0497101544721361e-01  7.8897669844283569e-01  7.7446426289265491e-01  7.6170591693165879e-01  7.5113426581612142e-01  7.4328554253424639e-01  7.3866872639229053e-01  7.3761404638563399e-01  7.4016538213535521e-01  7.4606378997049805e-01  7.5483124332379536e-01  7.6592086648171476e-01  7.7887097107007985e-01  7.9339837883118591e-01  8.0939346524146860e-01  8.2682312944491354e-01  8.4558806097640160e-01  8.6539872340035262e-01  8.8572342222726563e-01  9.0582906393023355e-01  9.2489736013407386e-01  9.4217287807122496e-01  9.5709339435760754e-01  9.6936618337786840e-01  9.7897734408011239e-01  9.8614408283617339e-01  9.9123394730594716e-01  9.9467759652920162e-01  9.9689461971598736e-01  9.9823807338332160e-01  9.9894079670168057e-01  9.9900555657830137e-01  9.9801068000438931e-01  9.9665239547882911e-01  9.9849663491755236e-01  9.9802809064930054e-01  9.9654091922310373e-01  9.9398146426179379e-01  9.8992792842728128e-01  9.8382610041017904e-01  9.7507723740106100e-01  9.6313344776945076e-01  9.4761630425051235e-01  9.2843720028892107e-01  9.0588217775913116e-01  8.8062193834687441e-01  8.5362306598497795e-01  8.2596840401164240e-01  7.9863363521032249e-01  7.7229656101693356e-01  7.4725764689867202e-01  7.2351627954432496e-01  7.0098502610757740e-01  6.7975941973043075e-01  6.6032559269793401e-01  6.4360402156142438e-01  6.3079196973935081e-01  6.2305244628091727e-01  6.2116541998252506e-01  6.2527765940054192e-01  6.3485200087387483e-01  6.4883926857377128e-01  6.6600742053837381e-01  6.8529922875577742e-01  7.0607972932231944e-01  7.2818353910583089e-01  7.5175838607726231e-01  7.7698509210574418e-01  8.0379816447536379e-01  8.3171899240288227e-01  8.5985708748964929e-01  8.8706397462526687e-01  9.1217059412767887e-01  9.3422065977500124e-01  9.5262933252878712e-01  9.6723470150556345e-01  9.7824984306539753e-01  9.8615057840050169e-01  9.9154222874266973e-01  9.9503960629537858e-01  9.9717255185794007e-01  9.9829067075812272e-01  9.9836680200871541e-01  9.9665239547882911e-01  9.9457909003881639e-01  9.9764419737076282e-01  9.9700802637068120e-01  9.9478933985007190e-01  9.9096930106998748e-01  9.8495149716579877e-01  9.7595683864648008e-01  9.6317181122519746e-01  9.4590115364443261e-01  9.2374801539809581e-01  8.9678415314825521e-01  8.6564929030738469e-01  8.3151946834370027e-01  7.9591401534204798e-01  7.6036697586062263e-01  7.2605420606975501e-01  6.9351251961045834e-01  6.6258243897918445e-01  6.3263787675389771e-01  6.0305129282388936e-01  5.7372849954355309e-01  5.4549087944809771e-01  5.2012113939136040e-01  5.0001383959565171e-01  4.8753189051834667e-01  4.8429547592157468e-01  4.9066708538250448e-01  5.0562977687130806e-01  5.2711019155412886e-01  5.5262836991502118e-01  5.8003044167453977e-01  6.0803200994339512e-01  6.3638414380353359e-01  6.6563327955048224e-01  6.9660785683704229e-01  7.2985689874520843e-01  7.6525621452986825e-01  8.0190437387698343e-01  8.3830517621778666e-01  8.7273190905643905e-01  9.0362568310713809e-01  9.2989901049873269e-01  9.5107505796070146e-01  9.6726097534760724e-01  9.7900367601172988e-01  9.8709573807806650e-01  9.9238897207168753e-01  9.9563993376692816e-01  9.9734819062521285e-01  9.9741976136722310e-01  9.9457909003881639e-01  9.9155297302630818e-01  9.9643891490426117e-01  9.9562689123656123e-01  9.9244497590751080e-01  9.8696379535685319e-01  9.7838124063972798e-01  9.6565726574710975e-01  9.4775416478231489e-01  9.2387237613182316e-01  8.9371415520165776e-01  8.5771274874822390e-01  8.1713123493810447e-01  7.7394214008924034e-01  7.3045286335278559e-01  6.8873647248387515e-01  6.5003254779603348e-01  6.1434956979234101e-01  5.8048058263601143e-01  5.4651806325116947e-01  5.1075401903378803e-01  4.7265924765083500e-01  4.3354900455596534e-01  3.9662056151092345e-01  3.6627323114757609e-01  3.4690193123686885e-01  3.4157280729236172e-01  3.5105434660176726e-01  3.7356264942958312e-01  4.0532458376539487e-01  4.4175978592197229e-01  4.7884967384876126e-01  5.1419832715423253e-01  5.4742785243001024e-01  5.7982855282613133e-01  6.1347416668669630e-01  6.5018795105662963e-01  6.9074584581064324e-01  7.3455507385444119e-01  7.7983610294863548e-01  8.2415694458263633e-01  8.6508191643917109e-01  9.0071306520706018e-01  9.2999045796667523e-01  9.5272723541476312e-01  9.6944168237256922e-01  9.8108781834587155e-01  9.8877720048624695e-01  9.9353628620552703e-01  9.9604362937221302e-01  9.9607802789673960e-01  9.9155297302630818e-01  9.8733466197846487e-01  9.9480609825488608e-01  9.9383920657504354e-01  9.8944987223547676e-01  9.8188400191422298e-01  9.7011694435960016e-01  9.5283256689213569e-01  9.2879725019490256e-01  8.9721122131242781e-01  8.5808069568027390e-01  8.1251149870235095e-01  7.6277879014108763e-01  7.1204615242944624e-01  6.6369889125589332e-01  6.2040825496988328e-01  5.8320578362273934e-01  5.5094208135748390e-01  5.2045700661908589e-01  4.8757181754656065e-01  4.4868464720112816e-01  4.0244406132564292e-01  3.5084799008431400e-01  2.9925813852647620e-01  2.5519770772514938e-01  2.2626228296516079e-01  2.1783060050435035e-01  2.3137159213433095e-01  2.6396047760548758e-01  3.0919719449431693e-01  3.5921118353545978e-01  4.0703346847539684e-01  4.4849269731567282e-01  4.8300710501132432e-01  5.1310205589413038e-01  5.4297121667731651e-01  5.7670671219108249e-01  6.1684643582231846e-01  6.6366367684090766e-01  7.1528946763164891e-01  7.6846097269064295e-01  8.1953026398103346e-01  8.6537164108694709e-01  9.0395037138881029e-01  9.3448514236746205e-01  9.5727820055553092e-01  9.7335937502702330e-01  9.8408715206689812e-01  9.9078264373418334e-01  9.9432073549743338e-01  9.9426351810905000e-01  9.8733466197846487e-01  9.8172738941432847e-01  9.9268914903686178e-01  9.9162878930101339e-01  9.8580019333397273e-01  9.7574477549772276e-01  9.6022111251746167e-01  9.3765368994869025e-01  9.0669177258005729e-01  8.6671427625336117e-01  8.1833670919199708e-01  7.6376889974792195e-01  7.0681109191638603e-01  6.5231389070466039e-01  6.0507439918138328e-0