<?xml version="1.0"?>
<VTKFile type="UnstructuredGrid"  version="0.1"  >
<UnstructuredGrid>
<Piece  NumberOfPoints="2601" NumberOfCells="5000">
<Points>
<DataArray  type="Float64"  NumberOfComponents="3"  format="ascii">0 0 0  0.02 0 0  0.04 0 0  0.06 0 0  0.08 0 0  0.1 0 0  0.12 0 0  0.14 0 0  0.16 0 0  0.18 0 0  0.2 0 0  0.22 0 0  0.24 0 0  0.26 0 0  0.28 0 0  0.3 0 0  0.32 0 0  0.34 0 0  0.36 0 0  0.38 0 0  0.4 0 0  0.42 0 0  0.44 0 0  0.46 0 0  0.48 0 0  0.5 0 0  0.52 0 0  0.54 0 0  0.5600000000000001 0 0  0.58 0 0  0.6 0 0  0.62 0 0  0.64 0 0  0.66 0 0  0.68 0 0  0.7 0 0  0.72 0 0  0.74 0 0  0.76 0 0  0.78 0 0  0.8 0 0  0.82 0 0  0.84 0 0  0.86 0 0  0.88 0 0  0.9 0 0  0.92 0 0  0.9399999999999999 0 0  0.96 0 0  0.98 0 0  1 0 0  0 0.02 0  0.02 0.02 0  0.04 0.02 0  0.06 0.02 0  0.08 0.02 0  0.1 0.02 0  0.12 0.02 0  0.14 0.02 0  0.16 0.02 0  0.18 0.02 0  0.2 0.02 0  0.22 0.02 0  0.24 0.02 0  0.26 0.02 0  0.28 0.02 0  0.3 0.02 0  0.32 0.02 0  0.34 0.02 0  0.36 0.02 0  0.38 0.02 0  0.4 0.02 0  0.42 0.02 0  0.44 0.02 0  0.46 0.02 0  0.48 0.02 0  0.5 0.02 0  0.52 0.02 0  0.54 0.02 0  0.5600000000000001 0.02 0  0.58 0.02 0  0.6 0.02 0  0.62 0.02 0  0.64 0.02 0  0.66 0.02 0  0.68 0.02 0  0.7 0.02 0  0.72 0.02 0  0.74 0.02 0  0.76 0.02 0  0.78 0.02 0  0.8 0.02 0  0.82 0.02 0  0.84 0.02 0  0.86 0.02 0  0.88 0.02 0  0.9 0.02 0  0.92 0.02 0  0.9399999999999999 0.02 0  0.96 0.02 0  0.98 0.02 0  1 0.02 0  0 0.04 0  0.02 0.04 0  0.04 0.04 0  0.06 0.04 0  0.08 0.04 0  0.1 0.04 0  0.12 0.04 0  0.14 0.04 0  0.16 0.04 0  0.18 0.04 0  0.2 0.04 0  0.22 0.04 0  0.24 0.04 0  0.26 0.04 0  0.28 0.04 0  0.3 0.04 0  0.32 0.04 0  0.34 0.04 0  0.36 0.04 0  0.38 0.04 0  0.4 0.04 0  0.42 0.04 0  0.44 0.04 0  0.46 0.04 0  0.48 0.04 0  0.5 0.04 0  0.52 0.04 0  0.54 0.04 0  0.5600000000000001 0.04 0  0.58 0.04 0  0.6 0.04 0  0.62 0.04 0  0.64 0.04 0  0.66 0.04 0  0.68 0.04 0  0.7 0.04 0  0.72 0.04 0  0.74 0.04 0  0.76 0.04 0  0.78 0.04 0  0.8 0.04 0  0.82 0.04 0  0.84 0.04 0  0.86 0.04 0  0.88 0.04 0  0.9 0.04 0  0.92 0.04 0  0.9399999999999999 0.04 0  0.96 0.04 0  0.98 0.04 0  1 0.04 0  0 0.06 0  0.02 0.06 0  0.04 0.06 0  0.06 0.06 0  0.08 0.06 0  0.1 0.06 0  0.12 0.06 0  0.14 0.06 0  0.16 0.06 0  0.18 0.06 0  0.2 0.06 0  0.22 0.06 0  0.24 0.06 0  0.26 0.06 0  0.28 0.06 0  0.3 0.06 0  0.32 0.06 0  0.34 0.06 0  0.36 0.06 0  0.38 0.06 0  0.4 0.06 0  0.42 0.06 0  0.44 0.06 0  0.46 0.06 0  0.48 0.06 0  0.5 0.06 0  0.52 0.06 0  0.54 0.06 0  0.5600000000000001 0.06 0  0.58 0.06 0  0.6 0.06 0  0.62 0.06 0  0.64 0.06 0  0.66 0.06 0  0.68 0.06 0  0.7 0.06 0  0.72 0.06 0  0.74 0.06 0  0.76 0.06 0  0.78 0.06 0  0.8 0.06 0  0.82 0.06 0  0.84 0.06 0  0.86 0.06 0  0.88 0.06 0  0.9 0.06 0  0.92 0.06 0  0.9399999999999999 0.06 0  0.96 0.06 0  0.98 0.06 0  1 0.06 0  0 0.08 0  0.02 0.08 0  0.04 0.08 0  0.06 0.08 0  0.08 0.08 0  0.1 0.08 0  0.12 0.08 0  0.14 0.08 0  0.16 0.08 0  0.18 0.08 0  0.2 0.08 0  0.22 0.08 0  0.24 0.08 0  0.26 0.08 0  0.28 0.08 0  0.3 0.08 0  0.32 0.08 0  0.34 0.08 0  0.36 0.08 0  0.38 0.08 0  0.4 0.08 0  0.42 0.08 0  0.44 0.08 0  0.46 0.08 0  0.48 0.08 0  0.5 0.08 0  0.52 0.08 0  0.54 0.08 0  0.5600000000000001 0.08 0  0.58 0.08 0  0.6 0.08 0  0.62 0.08 0  0.64 0.08 0  0.66 0.08 0  0.68 0.08 0  0.7 0.08 0  0.72 0.08 0  0.74 0.08 0  0.76 0.08 0  0.78 0.08 0  0.8 0.08 0  0.82 0.08 0  0.84 0.08 0  0.86 0.08 0  0.88 0.08 0  0.9 0.08 0  0.92 0.08 0  0.9399999999999999 0.08 0  0.96 0.08 0  0.98 0.08 0  1 0.08 0  0 0.1 0  0.02 0.1 0  0.04 0.1 0  0.06 0.1 0  0.08 0.1 0  0.1 0.1 0  0.12 0.1 0  0.14 0.1 0  0.16 0.1 0  0.18 0.1 0  0.2 0.1 0  0.22 0.1 0  0.24 0.1 0  0.26 0.1 0  0.28 0.1 0  0.3 0.1 0  0.32 0.1 0  0.34 0.1 0  0.36 0.1 0  0.38 0.1 0  0.4 0.1 0  0.42 0.1 0  0.44 0.1 0  0.46 0.1 0  0.48 0.1 0  0.5 0.1 0  0.52 0.1 0  0.54 0.1 0  0.5600000000000001 0.1 0  0.58 0.1 0  0.6 0.1 0  0.62 0.1 0  0.64 0.1 0  0.66 0.1 0  0.68 0.1 0  0.7 0.1 0  0.72 0.1 0  0.74 0.1 0  0.76 0.1 0  0.78 0.1 0  0.8 0.1 0  0.82 0.1 0  0.84 0.1 0  0.86 0.1 0  0.88 0.1 0  0.9 0.1 0  0.92 0.1 0  0.9399999999999999 0.1 0  0.96 0.1 0  0.98 0.1 0  1 0.1 0  0 0.12 0  0.02 0.12 0  0.04 0.12 0  0.06 0.12 0  0.08 0.12 0  0.1 0.12 0  0.12 0.12 0  0.14 0.12 0  0.16 0.12 0  0.18 0.12 0  0.2 0.12 0  0.22 0.12 0  0.24 0.12 0  0.26 0.12 0  0.28 0.12 0  0.3 0.12 0  0.32 0.12 0  0.34 0.12 0  0.36 0.12 0  0.38 0.12 0  0.4 0.12 0  0.42 0.12 0  0.44 0.12 0  0.46 0.12 0  0.48 0.12 0  0.5 0.12 0  0.52 0.12 0  0.54 0.12 0  0.5600000000000001 0.12 0  0.58 0.12 0  0.6 0.12 0  0.62 0.12 0  0.64 0.12 0  0.66 0.12 0  0.68 0.12 0  0.7 0.12 0  0.72 0.12 0  0.74 0.12 0  0.76 0.12 0  0.78 0.12 0  0.8 0.12 0  0.82 0.12 0  0.84 0.12 0  0.86 0.12 0  0.88 0.12 0  0.9 0.12 0  0.92 0.12 0  0.9399999999999999 0.12 0  0.96 0.12 0  0.98 0.12 0  1 0.12 0  0 0.14 0  0.02 0.14 0  0.04 0.14 0  0.06 0.14 0  0.08 0.14 0  0.1 0.14 0  0.12 0.14 0  0.14 0.14 0  0.16 0.14 0  0.18 0.14 0  0.2 0.14 0  0.22 0.14 0  0.24 0.14 0  0.26 0.14 0  0.28 0.14 0  0.3 0.14 0  0.32 0.14 0  0.34 0.14 0  0.36 0.14 0  0.38 0.14 0  0.4 0.14 0  0.42 0.14 0  0.44 0.14 0  0.46 0.14 0  0.48 0.14 0  0.5 0.14 0  0.52 0.14 0  0.54 0.14 0  0.5600000000000001 0.14 0  0.58 0.14 0  0.6 0.14 0  0.62 0.14 0  0.64 0.14 0  0.66 0.14 0  0.68 0.14 0  0.7 0.14 0  0.72 0.14 0  0.74 0.14 0  0.76 0.14 0  0.78 0.14 0  0.8 0.14 0  0.82 0.14 0  0.84 0.14 0  0.86 0.14 0  0.88 0.14 0  0.9 0.14 0  0.92 0.14 0  0.9399999999999999 0.14 0  0.96 0.14 0  0.98 0.14 0  1 0.14 0  0 0.16 0  0.02 0.16 0  0.04 0.16 0  0.06 0.16 0  0.08 0.16 0  0.1 0.16 0  0.12 0.16 0  0.14 0.16 0  0.16 0.16 0  0.18 0.16 0  0.2 0.16 0  0.22 0.16 0  0.24 0.16 0  0.26 0.16 0  0.28 0.16 0  0.3 0.16 0  0.32 0.16 0  0.34 0.16 0  0.36 0.16 0  0.38 0.16 0  0.4 0.16 0  0.42 0.16 0  0.44 0.16 0  0.46 0.16 0  0.48 0.16 0  0.5 0.16 0  0.52 0.16 0  0.54 0.16 0  0.5600000000000001 0.16 0  0.58 0.16 0  0.6 0.16 0  0.62 0.16 0  0.64 0.16 0  0.66 0.16 0  0.68 0.16 0  0.7 0.16 0  0.72 0.16 0  0.74 0.16 0  0.76 0.16 0  0.78 0.16 0  0.8 0.16 0  0.82 0.16 0  0.84 0.16 0  0.86 0.16 0  0.88 0.16 0  0.9 0.16 0  0.92 0.16 0  0.9399999999999999 0.16 0  0.96 0.16 0  0.98 0.16 0  1 0.16 0  0 0.18 0  0.02 0.18 0  0.04 0.18 0  0.06 0.18 0  0.08 0.18 0  0.1 0.18 0  0.12 0.18 0  0.14 0.18 0  0.16 0.18 0  0.18 0.18 0  0.2 0.18 0  0.22 0.18 0  0.24 0.18 0  0.26 0.18 0  0.28 0.18 0  0.3 0.18 0  0.32 0.18 0  0.34 0.18 0  0.36 0.18 0  0.38 0.18 0  0.4 0.18 0  0.42 0.18 0  0.44 0.18 0  0.46 0.18 0  0.48 0.18 0  0.5 0.18 0  0.52 0.18 0  0.54 0.18 0  0.5600000000000001 0.18 0  0.58 0.18 0  0.6 0.18 0  0.62 0.18 0  0.64 0.18 0  0.66 0.18 0  0.68 0.18 0  0.7 0.18 0  0.72 0.18 0  0.74 0.18 0  0.76 0.18 0  0.78 0.18 0  0.8 0.18 0  0.82 0.18 0  0.84 0.18 0  0.86 0.18 0  0.88 0.18 0  0.9 0.18 0  0.92 0.18 0  0.9399999999999999 0.18 0  0.96 0.18 0  0.98 0.18 0  1 0.18 0  0 0.2 0  0.02 0.2 0  0.04 0.2 0  0.06 0.2 0  0.08 0.2 0  0.1 0.2 0  0.12 0.2 0  0.14 0.2 0  0.16 0.2 0  0.18 0.2 0  0.2 0.2 0  0.22 0.2 0  0.24 0.2 0  0.26 0.2 0  0.28 0.2 0  0.3 0.2 0  0.32 0.2 0  0.34 0.2 0  0.36 0.2 0  0.38 0.2 0  0.4 0.2 0  0.42 0.2 0  0.44 0.2 0  0.46 0.2 0  0.48 0.2 0  0.5 0.2 0  0.52 0.2 0  0.54 0.2 0  0.5600000000000001 0.2 0  0.58 0.2 0  0.6 0.2 0  0.62 0.2 0  0.64 0.2 0  0.66 0.2 0  0.68 0.2 0  0.7 0.2 0  0.72 0.2 0  0.74 0.2 0  0.76 0.2 0  0.78 0.2 0  0.8 0.2 0  0.82 0.2 0  0.84 0.2 0  0.86 0.2 0  0.88 0.2 0  0.9 0.2 0  0.92 0.2 0  0.9399999999999999 0.2 0  0.96 0.2 0  0.98 0.2 0  1 0.2 0  0 0.22 0  0.02 0.22 0  0.04 0.22 0  0.06 0.22 0  0.08 0.22 0  0.1 0.22 0  0.12 0.22 0  0.14 0.22 0  0.16 0.22 0  0.18 0.22 0  0.2 0.22 0  0.22 0.22 0  0.24 0.22 0  0.26 0.22 0  0.28 0.22 0  0.3 0.22 0  0.32 0.22 0  0.34 0.22 0  0.36 0.22 0  0.38 0.22 0  0.4 0.22 0  0.42 0.22 0  0.44 0.22 0  0.46 0.22 0  0.48 0.22 0  0.5 0.22 0  0.52 0.22 0  0.54 0.22 0  0.5600000000000001 0.22 0  0.58 0.22 0  0.6 0.22 0  0.62 0.22 0  0.64 0.22 0  0.66 0.22 0  0.68 0.22 0  0.7 0.22 0  0.72 0.22 0  0.74 0.22 0  0.76 0.22 0  0.78 0.22 0  0.8 0.22 0  0.82 0.22 0  0.84 0.22 0  0.86 0.22 0  0.88 0.22 0  0.9 0.22 0  0.92 0.22 0  0.9399999999999999 0.22 0  0.96 0.22 0  0.98 0.22 0  1 0.22 0  0 0.24 0  0.02 0.24 0  0.04 0.24 0  0.06 0.24 0  0.08 0.24 0  0.1 0.24 0  0.12 0.24 0  0.14 0.24 0  0.16 0.24 0  0.18 0.24 0  0.2 0.24 0  0.22 0.24 0  0.24 0.24 0  0.26 0.24 0  0.28 0.24 0  0.3 0.24 0  0.32 0.24 0  0.34 0.24 0  0.36 0.24 0  0.38 0.24 0  0.4 0.24 0  0.42 0.24 0  0.44 0.24 0  0.46 0.24 0  0.48 0.24 0  0.5 0.24 0  0.52 0.24 0  0.54 0.24 0  0.5600000000000001 0.24 0  0.58 0.24 0  0.6 0.24 0  0.62 0.24 0  0.64 0.24 0  0.66 0.24 0  0.68 0.24 0  0.7 0.24 0  0.72 0.24 0  0.74 0.24 0  0.76 0.24 0  0.78 0.24 0  0.8 0.24 0  0.82 0.24 0  0.84 0.24 0  0.86 0.24 0  0.88 0.24 0  0.9 0.24 0  0.92 0.24 0  0.9399999999999999 0.24 0  0.96 0.24 0  0.98 0.24 0  1 0.24 0  0 0.26 0  0.02 0.26 0  0.04 0.26 0  0.06 0.26 0  0.08 0.26 0  0.1 0.26 0  0.12 0.26 0  0.14 0.26 0  0.16 0.26 0  0.18 0.26 0  0.2 0.26 0  0.22 0.26 0  0.24 0.26 0  0.26 0.26 0  0.28 0.26 0  0.3 0.26 0  0.32 0.26 0  0.34 0.26 0  0.36 0.26 0  0.38 0.26 0  0.4 0.26 0  0.42 0.26 0  0.44 0.26 0  0.46 0.26 0  0.48 0.26 0  0.5 0.26 0  0.52 0.26 0  0.54 0.26 0  0.5600000000000001 0.26 0  0.58 0.26 0  0.6 0.26 0  0.62 0.26 0  0.64 0.26 0  0.66 0.26 0  0.68 0.26 0  0.7 0.26 0  0.72 0.26 0  0.74 0.26 0  0.76 0.26 0  0.78 0.26 0  0.8 0.26 0  0.82 0.26 0  0.84 0.26 0  0.86 0.26 0  0.88 0.26 0  0.9 0.26 0  0.92 0.26 0  0.9399999999999999 0.26 0  0.96 0.26 0  0.98 0.26 0  1 0.26 0  0 0.28 0  0.02 0.28 0  0.04 0.28 0  0.06 0.28 0  0.08 0.28 0  0.1 0.28 0  0.12 0.28 0  0.14 0.28 0  0.16 0.28 0  0.18 0.28 0  0.2 0.28 0  0.22 0.28 0  0.24 0.28 0  0.26 0.28 0  0.28 0.28 0  0.3 0.28 0  0.32 0.28 0  0.34 0.28 0  0.36 0.28 0  0.38 0.28 0  0.4 0.28 0  0.42 0.28 0  0.44 0.28 0  0.46 0.28 0  0.48 0.28 0  0.5 0.28 0  0.52 0.28 0  0.54 0.28 0  0.5600000000000001 0.28 0  0.58 0.28 0  0.6 0.28 0  0.62 0.28 0  0.64 0.28 0  0.66 0.28 0  0.68 0.28 0  0.7 0.28 0  0.72 0.28 0  0.74 0.28 0  0.76 0.28 0  0.78 0.28 0  0.8 0.28 0  0.82 0.28 0  0.84 0.28 0  0.86 0.28
[...]
<PointData  Scalars="q_f"> 
<DataArray  type="Float64"  Name="q_f"  format="ascii">6.7849949078656685e+08  2.2344002958847621e+08  3.3726167296286690e+08  -3.9770768399305477e+09  6.7122463313118019e+09  7.2782143770240033e+08  -1.6632482816790575e+10  -1.6725618702431526e+09  -1.6837168111329615e+10  -5.1119119591995964e+10  1.5571167662261824e+10  -1.0924581313129797e+10  -9.9632079351551495e+09  -8.0981211708376226e+09  2.1811324757119713e+10  -1.3242197280862179e+10  3.4515876658299567e+11  1.6644399700888536e+09  3.6478021504293190e+10  4.7629560059328032e+09  -7.0187255868716171e+10  1.9551832333096390e+10  1.4241995077800970e+11  9.4149683701022742e+11  -1.7504745643786014e+13  2.4023038659201245e+12  -1.7402964115916117e+13  9.3852498250418127e+11  1.4223849473823669e+11  1.9365304891464935e+10  -6.9970092237344650e+10  4.7707722674500732e+09  3.6446318995179214e+10  1.6713527357108712e+09  3.4520336390291864e+11  -1.3247122503302177e+10  2.1817288336653858e+10  -8.1008556303995380e+09  -9.9665756023243370e+09  -1.0926775785055819e+10  1.5574935274337383e+10  -5.1127976642725746e+10  -1.6840220828170189e+10  -1.6730332031927943e+09  -1.6635061844372360e+10  7.2646036911808634e+08  6.7099584060562162e+09  -3.9772214206017461e+09  3.3702952031430465e+08  2.2414726131913495e+08  6.7849949078656685e+08  2.0729493999958229e+08  -1.1473354306921391e+08  2.4664767324287920e+09  3.8390179068570572e+08  -7.9466821392661743e+09  -6.4483486973087454e+09  -1.3638473284555941e+10  -9.2875339124197178e+09  -5.3086038006510544e+09  -8.2790735601168030e+10  1.4473895995816054e+09  6.0306628657987938e+09  -2.3637487738863106e+10  -1.9285068022675308e+10  -4.1888970826747022e+09  -3.4391882433039474e+10  -2.5852338632628891e+10  -9.8430831464295733e+08  3.3751337923026891e+09  -1.3000568996611710e+10  -9.5835855926072483e+09  5.6025008077542133e+09  3.9904867494611877e+10  -5.1759911680577217e+12  -2.3569262458694980e+12  -2.5647116423319033e+12  -1.6864017501218036e+11  -2.8052688200268433e+12  -1.3451722146440911e+12  1.3226549700863503e+12  2.4600078324717007e+11  2.1794284544772579e+10  -3.8238483870928235e+11  7.4808414041806564e+10  1.1294599703566963e+12  2.9501695538105829e+11  3.1164659653657428e+11  8.5049851768723846e+10  3.8136808008417038e+10  3.6460372396284576e+10  8.2606445722387329e+10  1.3140015293487616e+09  -2.4058256683312546e+10  2.4760633190948944e+09  -1.9054791776538076e+09  -4.1088818038990240e+09  2.8951869831670460e+10  -2.6948759164049061e+10  -7.5953896199437225e+08  -7.0341316381995606e+08  2.0729493999958229e+08  -6.2493449250667728e+07  1.9324627944728300e+08  -3.5824047401219624e+08  4.7591019084849033e+09  -8.7157291193837261e+08  -1.8223773498377930e+10  -5.9417935669312401e+09  -4.4130493846698715e+10  2.2473908231199669e+10  -8.1124720041968750e+10  -1.0484777138684782e+11  4.7011734280658484e+09  -3.5111521172284073e+10  -2.9695221535917797e+10  -1.0518811933334392e+11  -1.9464050121011795e+10  -4.7950091572964048e+09  -7.6933157995527334e+09  -7.6995761070628519e+09  -5.5057460271339051e+07  -3.5346118670984864e+09  -7.7310006169971638e+09  1.8825869119067410e+11  1.6952765350598273e+11  7.5731688226713562e+09  9.6776761153791333e+11  3.4157780711160876e+11  -4.4344675623033535e+12  -8.4038642758075479e+12  5.5500014745652266e+12  -7.3719311712573230e+11  3.3474078555275812e+11  6.3476324209020342e+12  4.3078783171138262e+12  -4.4017514299161289e+12  5.2833379529481094e+12  1.9888277268705222e+12  -9.5965333788045410e+11  2.5504476299429932e+10  -2.1039683832745032e+11  1.1814023499742796e+11  5.1778373706866974e+10  3.2732303984854131e+09  -2.5459942709004827e+09  1.5530098133987888e+10  -5.8364958713454323e+09  -1.1225684901646544e+10  4.1789682375110046e+10  -4.0047028772011632e+08  -6.7180092976057005e+08  -6.2493449250667728e+07  -9.3717183601468182e+08  5.6145767297512186e+08  -1.3728911173025739e+09  5.8114855227606325e+09  8.9339399944577849e+08  -4.0290089437496672e+09  -7.5508191314717607e+09  -3.3912708312367531e+10  -3.1828228830463318e+10  -4.7004084495793037e+09  -1.5925721699552960e+11  1.5690397832435188e+10  1.0541192528841177e+10  -1.9468821427433157e+11  -4.1624028116536741e+09  1.8025377156245990e+09  -1.5922653341546023e+08  -4.5588256659064629e+10  -3.6354951755238185e+09  5.8374795846058226e+08  3.3979403482243657e+09  -6.4429188335201080e+10  -5.3684066076606888e+10  2.2332562517842854e+10  -1.9010649504724506e+10  -4.2878595681261895e+12  5.7380760045817749e+11  2.5522640944582456e+12  -6.4153721076087578e+12  -3.2591774066422520e+13  9.1355763813198523e+11  -2.3393923724832544e+11  7.1384689099513342e+11  -9.4326926425849805e+12  5.1491247080416143e+12  2.6316415675252867e+13  -1.9141321304344898e+13  -8.5577082488078625e+11  -4.9083798318250992e+10  9.4357828689623572e+11  -4.7234260234976898e+11  2.3208358394329486e+11  -1.4026764063052912e+09  3.2382293011388226e+10  -6.7075804070744653e+11  -4.6607212245544495e+11  6.1679364273126793e+10  1.8791780799827305e+10  6.2165139307276793e+09  6.0170097033603266e+06  -9.3717183601468182e+08  5.2702644516579252e+08  -1.4096815750498087e+09  2.3890201439147348e+09  -1.3972873306788683e+09  1.6299591773606958e+10  -5.4568004109782906e+09  -3.5299543872722182e+09  -1.2684153636859686e+10  -1.1510544582096318e+11  4.6439873974085045e+10  -2.2861443061185474e+10  -1.3041749289364649e+10  8.0740601719367081e+10  3.4493259394307904e+09  -3.2051878886086565e+08  -9.3124689720368874e+08  5.7022553673845723e+07  5.7112250287084138e+08  -1.1901371125044402e+08  -6.3614247584154809e+08  1.0482888768842989e+10  7.0628517850744553e+09  1.3984072917056581e+08  -1.7670051756811853e+11  8.6887635940591846e+11  6.2019111204221445e+12  1.0190378925798430e+13  -1.3375867734708511e+12  -2.4355577257963824e+13  3.6333719066379805e+13  9.6241339153377578e+12  -5.2916803443621484e+12  -9.7977541306109656e+11  -8.9066287335831250e+12  -8.6387400910674590e+12  -5.0788710169319625e+13  6.1639134955372393e+12  3.9302700966543037e+12  7.9669784848865967e+11  -2.2148003307118076e+11  -5.6048888687785571e+11  -1.1874001152514573e+12  8.5112872793650513e+11  5.8520544914734766e+11  1.3694593470306521e+12  1.8255575042727197e+12  -1.7203558516950519e+11  1.2397994936446997e+11  -3.2111933158567524e+10  6.4067083929048710e+09  5.2702644516579252e+08  -1.9617133422637874e+08  -6.2561627049420762e+08  -1.7033808665663199e+09  -3.2564471011966624e+09  1.2967921322817707e+10  4.0019785894439096e+09  -4.7548482724526939e+09  -9.1208480604397221e+09  -1.4447603445513945e+10  -5.6814862297090602e+08  2.0460172640457363e+10  -9.1332256120370987e+10  5.5308661074052973e+09  3.7481823447677479e+06  4.2203611271953225e+08  9.7953542066541302e+08  -2.9965855465576315e+08  -2.1553963245035928e+08  6.7887128329556435e+07  3.5123330617740601e+08  -1.9416367828600707e+09  -8.8437336785484481e+08  1.1784475133204424e+10  1.3770531070082288e+11  -1.6161212134678964e+11  -2.9706831885273352e+11  2.8309966855044105e+13  -4.8425108762587859e+13  -9.7539659451405391e+12  -2.0531084603174712e+12  1.0265797695687295e+14  4.7637384616139736e+12  -1.3797659672483201e+12  -3.3672485560112397e+12  -1.4131561444460375e+13  1.4550310092546262e+13  6.2446977711987305e+12  1.4975603388766450e+12  -7.8704375678775330e+11  -1.5440882385332146e+12  -5.9136587115744580e+11  -2.0460519717980913e+12  8.1455908043289563e+11  2.1701730583793892e+12  -1.3598686685449751e+12  -1.0955167581038180e+12  1.2493547939658078e+11  5.2634883932989304e+10  -1.2905736881754280e+11  -6.5612609742407823e+08  -1.9617133422637874e+08  2.0982503879200387e+09  1.4906070041880651e+09  -6.7190877096231604e+09  -9.2504971072485662e+08  -2.6294755126467228e+10  5.1742624310915527e+10  -2.4535095873257954e+10  -1.0477320641936480e+10  -1.0131856890046364e+09  -4.4674538644691948e+10  1.1177776117096631e+11  -4.4693126492700138e+09  1.3886917333556318e+10  -2.9247552345045929e+09  9.6805362074976468e+08  -9.5806253404764071e+07  1.5376381711350763e+08  -9.1458542402806795e+08  -2.4527401225612637e+08  -2.9950642933093166e+09  5.5062465010599189e+07  5.7760188930558786e+09  -5.5026906406761024e+10  -1.6485897187190237e+11  -4.5453931693921326e+11  2.2396215011992151e+11  -1.3600697403320020e+12  3.8164059626337586e+13  5.0479232283933779e+12  -2.9656548643720480e+13  6.7405568403316461e+13  6.7694538300809266e+13  8.9317942458009746e+12  3.3335806212408423e+12  -2.6020686406080586e+12  3.1008747768222812e+12  1.1797758222179238e+13  2.1878397418398657e+12  -4.1244955267205542e+12  -1.3512110605330430e+12  -3.9651373779187480e+12  -9.5832145913876599e+11  -2.8593382893415332e+11  -1.7826186203170583e+12  9.3208216735171167e+11  2.8053654490667231e+12  2.4896868790217815e+10  -1.3314142333537619e+11  7.0641015513128614e+09  -4.0302286388653111e+08  2.0982503879200387e+09  1.4940242522387105e+08  3.0427745999405503e+09  1.6629204758304174e+09  -3.7497244153048406e+09  -1.5279016546168850e+10  -2.3824908407532051e+10  1.9675059219713120e+10  9.8803363661375484e+09  -8.6498747822076248e+10  5.2933036526949707e+10  -1.0885142584148376e+10  3.0098642909985157e+10  -1.7667861308077667e+10  -3.3387521144634304e+09  -1.0730108269875654e+09  5.2327640754378724e+08  5.8712067211932051e+08  -4.4165328710674542e+08  1.6058900929655774e+09  -1.1115151691507164e+07  2.7688536671934915e+09  9.3885607446274719e+09  3.7674788017267593e+10  3.1154804732916393e+10  -9.7651988878463196e+11  4.4484547891737579e+11  8.5381266019271729e+12  -7.2661598174473438e+12  -4.3490467312304211e+13  -5.9531445558537422e+12  -2.0381097962647312e+13  3.8132970216281538e+14  1.5117046839511272e+12  1.6205578514023025e+12  -2.5462142979816074e+11  1.1562698548436758e+12  2.1377923978065193e+12  -5.4258779512245859e+12  -1.7115032487157065e+12  -7.7457018353148096e+12  -1.0681326285777347e+12  -1.0125401578378981e+12  -3.8594690126152451e+12  1.7353228082822738e+13  8.0173347345064189e+12  1.3307181683478657e+12  2.5075883046350293e+11  -4.9042267749951111e+10  1.5976558136987636e+09  2.1569813027316036e+09  1.4940242522387105e+08  -1.8381774801274974e+09  5.7787108306481075e+09  5.4971724239197264e+09  -2.3700737340665960e+09  -3.6687608709908595e+09  -5.5521389014132355e+10  4.2117180925260239e+10  -4.2726296934040108e+10  5.1911661276610619e+10  -1.6870752620424948e+10  -3.4409923525263412e+10  -6.0823655132731171e+09  -1.3181680747893597e+10  -1.1343771988029547e+10  3.8029670721435505e+08  2.7140115063574944e+09  1.1771922339531429e+09  1.2226662968492376e+07  -2.5318548103766489e+08  1.9436363669812222e+09  4.0605352509240956e+09  -2.1122867680479403e+09  9.3682277849392624e+09  6.7368081605684784e+10  -5.5917767583268347e+11  -2.8397756110046294e+12  -1.1231990824203857e+12  -2.9041821184039058e+12  -2.2483112024061997e+12  1.1215044700123393e+13  2.4945169694423086e+13  1.1108256760489145e+13  -1.1389515504963547e+12  2.4668426279670093e+12  3.7582386111628140e+12  -2.6923499103322563e+12  1.0410857236415438e+13  -8.4784813365859180e+12  -9.4532195737516230e+12  -5.3929227291028643e+12  9.4657332927833313e+11  -6.8171209142375957e+12  2.9008013825604441e+13  1.3043301736110207e+13  1.9044929920956572e+12  1.3554619267147593e+12  1.3950976626289312e+12  -1.8914490803002902e+11  -4.0625268266128258e+10  7.2790325576378784e+09  -1.8381774801274974e+09  -2.2809731552655153e+09  -3.4171720679643482e+08  1.7340392130538631e+10  8.6197686641344011e+08  -8.3193364991173398e+08  -3.4278733049726044e+10  -5.1135503940496803e+10  8.0785326238510010e+10  -3.0052030480630112e+10  -4.8677868437600388e+10  1.7854478134982731e+10  5.3560534180162363e+09  -4.2558781260379381e+09  -1.0725487836544333e+10  1.3941504731318867e+10  4.9110027564150085e+09  -6.1015994273652184e+08  -2.3756327581304076e+08  7.8355772322333252e+08  2.4865238594820409e+09  2.1129974887173355e+09  3.2271879941211715e+09  -7.8950509410872068e+09  3.5990312650207527e+10  -6.7200635748518176e+11  1.6439713796542551e+11  -2.8104270743134834e+12  -8.8173141595206035e+12  -6.1075701230182090e+12  -6.5224510220304281e+13  1.0237515928707742e+13  5.5968445193951055e+12  4.6950038535186895e+12  -1.4238050031085708e+12  2.2660240266738154e+12  -9.6251951673015967e+11  -5.7169492907801914e+12  9.2190565980313340e+12  -6.1839915806265107e+12  4.5220990901439990e+11  -8.2246676680437266e+12  3.4369097776081527e+13  1.5313766116804271e+13  1.5359373348917585e+12  1.5917870908478672e+12  -9.9455738139649994e+10  7.2587971608386523e+11  2.9707336488777625e+11  -1.6368986679087192e+11  -2.0752292504942665e+10  -2.2809731552655153e+09  -7.0106425176881351e+09  -2.9065282977195099e+10  2.9576813316989136e+10  2.2268821028824524e+10  -9.1059797312179718e+09  -1.0834082854736855e+10  -1.7559011430958017e+11  1.3234518303433597e+11  -5.8813577430162323e+10  -1.1206553849180269e+10  -1.2763162446287611e+10  9.3887732549090500e+09  -9.4085644198735580e+10  5.6484936651134895e+10  1.9828011080078022e+10  -2.6035962879342098e+09  -6.6512592321974719e+08  3.5396216756717581e+08  6.8529838367122364e+08  2.5552562165447478e+09  1.7610072890336831e+09  2.5334409621022134e+09  -4.3093891473907595e+09  2.6393730795925137e+10  -8.7947730906286793e+09  -1.0210874864607961e+12  5.7147222159363379e+12  -3.0624717993722680e+13  -7.9839279041837568e+12  2.4361027118338335e+12  7.9134847706408167e+11  2.0283768957966201e+12  6.7918319407297910e+12  -3.0615557045210562e+12  8.1393957499539551e+11  3.4916858564803608e+12  -3.1379155626909678e+12  2.2634141042863838e+12  3.8068464206639741e+12  -4.8156160786928486e+12  2.9454402959967793e+12  1.1030061993768824e+13  -6.9179960093470312e+12  2.2908363447369155e+12  -8.4613473817704805e+12  -4.3809621319871665e+12  1.5434174326942996e+12  5.7160088724999524e+11  1.8015688817153324e+10  -6.0149480892414200e+10  -7.0106425176881351e+09  -1.3893489244143665e+11  -1.0549606114061371e+10  -2.0685689789150002e+10  1.0819743317591203e+11  1.7913496404063786e+10  4.3483417163639450e+09  -1.2613973600960655e+11  -2.4232132520927758e+09  8.0342255397729218e+10  1.8274659296410667e+10  6.4658208627028027e+09  1.7034114554187271e+10  2.1048421371371563e+10  -2.8291678520583847e+10  -1.1577888958843142e+10  1.4716745354996850e+09  2.4731686236413622e+09  1.4392310866239023e+09  3.1702510381813755e+09  3.0813312541646318e+09  5.3289282933522148e+09  -2.1626090804681110e+09  -8.3060206477616334e+08  2.7374450136987844e+09  -2.1851523849229660e+09  9.8592430791267471e+10  6.9998583881712476e+11  5.8535734861175635e+11  4.6989384941425576e+12  -1.1892043989372073e+11  -2.2603058090181001e+12  3.6716521211631396e+12  -3.1543347557341885e+12  -1.1771022897321979e+13  -9.0385423923532983e+11  -2.8951473694261177e+12  1.6011699520998013e+12  5.6258553826790417e+11  3.7912864203868540e+12  -1.7568784967392033e+13  -3.3562784411391362e+12  3.4050370716900889e+12  -4.1406733912204727e+12  -2.0336015057659781e+13  -1.0159225169923387e+13  -4.2133400653308032e+12  1.3433678365782136e+12  1.8885418761340317e+11  2.3520148525329704e+10  -5.7610639439594032e+10  -1.3893489244143665e+11  -2.5175249649151706e+11  -8.6601466894994537e+10  -1.7273079328247861e+11  2.0800501016951846e+11  8.4241438479811768e+10  2.5596227513731246e+09  1.7728149067133170e+11  -5.8860526642431799e+11  6.0779286826808545e+11  -2.5886830190876415e+10  -9.2309075798204758e+10  5.2680531235545364e+10  1.8138504167627304e+09  2.7947425464884171e+10  1.2888180930021679e+10  5.8629439547334251e+09  3.2303986500728078e+09  -4.7765199035638642e+08  3.1098366930835857e+09  7.4912705288568792e+09  -8.8788888713471639e+08  -1.6195946829913847e+09  -1.7724047174285955e+09  -6.3035679898922133e+08  8.8684136661707954e+09  -1.1771998465388097e+11  -6.9450355896739716e+10  -1.7666633112673236e+11  4.5209117985875420e+12  -6.3936657362560803e+11  -4.4271012532852852e+12  -1.4593008336681570e+11  5.5490383065339209e+12  -1.4238040457366906e+13  -1.5562409355424867e+13  -5.5839642848275220e+11  -8.3639812028596863e+10  2.6466597415415283e+12  -1.6674213675224763e+12  -1.6289859252166016e+12  6.4956642265098242e+12  2.5156221145377832e+12  3.5703197457297295e+12  1.0798490872144367e+13  9.7008293163599158e+11  -2.0378956761912937e+12  7.1372650954135020e+12  1.4819894363676997e+12  3.1994071903884070e+11  -1.6163473071414725e+11  -2.5175249649151706e+11  -5.5888906246088196e+11  -1.3027475772637483e+12  -2.9971746482403723e+11  -1.8527772846411850e+11  5.6814192100600317e+11  3.7361796019278168e+10  -1.0517037241441997e+11  4.2991490897214424e+10  -8.0097907917127304e+10  1.1205768093106879e+11  -1.4827749013314145e+11  3.7278883962582169e+10  1.8337543877329811e+10  1.5985963026111282e+10  2.0446600996387085e+10  2.0881355214790189e+09  -6.4598340624080410e+09  2.2683900888728290e+09  1.0861549613862583e+10  -1.1400051417277200e+09  -2.3331312793992710e+09  1.7975263881505499e+09  -7.9985645856163006e+09  2.9798184707885242e+08  -1.3690446570241801e+11  -2.0967783766856049e+11  1.3777177051484439e+11  -4.6441544241979596e+11  1.9628602305895369e+12  -6.1715771972304150e+12  2.0572486371814108e+11  8.1224401286066760e+11  5.1252922474551172e+11  -4.5064390946649873e+12  -2.4601991519695035e+13  9.6260487853004431e+11  -5.8151373440116158e+10  5.4946718515698652e+12  4.8070961994139004e+12  1.9693853173888992e+12  1.4113139630626855e+12  -8.1588586229567441e+12  -2.5545723294105952e+12  -1.3639444396460823e+12  1.1026171131151306e+12  3.4416168703764990e+12  2.2768362845780332e+12  8.8455886407437285e+12  2.9081501195515742e+12  -5.2340035934459753e+11  -5.5888906246088196e+11  1.1657217647530437e+12  -1.8653707783478748e+12  -2.4220521561231846e+12  -2.1204886077924890e+12  1.1337692661121213e+12  7.8591788381255432e+11  -1.2112277988341574e+11  -2.4315503696503845e+10  -2.2520885962334808e+10  -5.5573875973360184e+10  -1.7817082854942953e+11  -2.5569585290667920e+11  1.0643768590192285e+11  3.7089087949268806e+10  1.2264103411387475e+09  -1.6874085660622881e+10  1.3363684711100714e+09  1.4361140041973684e+10  -4.3673318933270674e+09  -1.0721041392791698e+10  1.0796610627701943e+09  -1.3691323850428627e+09  -1.3797321838392412e+10  -1.1663638125346130e+10  3.4327879308917007e+10  3.9750446437919937e+10  -1.3855775176538037e+12  -4.9426093895240410e+12  -3.4048548129658258e+13  1.1109634860222523e+11  3.2936827777193530e+11  7.6486161021791968e+11  -3.6778425201323810e+11  8.0861714615407188e+12  -3.1256457990915605e+12  4.2362894444713027e+12  2.2699753152190903e+11  -9.0139059417868689e+11  5.2745468411962188e+12  -1.2897964969519590e+12  -1.6792569094545615e+13  -3.6883260652001411e+12  7.1965172948831836e+11  -1.5551305887199557e+11  -3.9063248549523750e+10  -5.2108170661492084e+11  8.8400435003161194e+11  -7.4342328598742664e+11  4.1182274077407104e+12  8.0945660785916611e+12  1.1657217647530437e+12  1.3086704165618178e+13  8.1687552371307607e+12  -1.9540174398595972e+11  -1.0727144727367632e+12  -6.1958208960424424e+12  6.4123554303521765e+11  7.9101752498685654e+10  3.5900101197165031e+10  2.5290265812456223e+10  -1.2828633424955310e+11  1.0256927722963354e+11  -2.4642198863234088e+11  6.5999293558632156e+10  4.8732925093544724e+10  2.2719810663263470e+10  1.4934135058583351e+10  1.7127514995106436e+10  -1.6562462349530535e+10  -2.5101510656979443e+10  -4.2757872846337051e+09  2.0478172427610657e+09  -1.0396348976099716e+10  -1.1338448146136642e+10  6.2690226603825035e+09  1.2624047339324566e+10  4.0180264532310791e+10  -2.1019555861842642e+12  1.4917738646924070e+13  1.3712190680774689e+13  3.0787539912761182e+11  2.1600626363521948e+12  6.0761714747760315e+11  1.2298106732144900e+12  1.8091102405397363e+12  3.7376517036638896e+12  2.7376069770140239e+12  -7.2448885738427710e+11  -2.3432782710640466e+11  -9.9466713772785309e+10  4.5033009027220107e+12  2.1095868844949954e+12  8.0021619818325989e+10  -1.4958947174438284e+11  9.6537986591056592e+11  5.5629534224992676e+11  2.7153011779911319e+11  5.4249130588569269e+11  1.1018642689538904e+13 