<?xml version="1.0"?>
<VTKFile type="UnstructuredGrid"  version="0.1"  >
<UnstructuredGrid>
<Piece  NumberOfPoints="2601" NumberOfCells="5000">
<Points>
<DataArray  type="Float64"  NumberOfComponents="3"  format="ascii">0 0 0  0.02 0 0  0.04 0 0  0.06 0 0  0.08 0 0  0.1 0 0  0.12 0 0  0.14 0 0  0.16 0 0  0.18 0 0  0.2 0 0  0.22 0 0  0.24 0 0  0.26 0 0  0.28 0 0  0.3 0 0  0.32 0 0  0.34 0 0  0.36 0 0  0.38 0 0  0.4 0 0  0.42 0 0  0.44 0 0  0.46 0 0  0.48 0 0  0.5 0 0  0.52 0 0  0.54 0 0  0.5600000000000001 0 0  0.58 0 0  0.6 0 0  0.62 0 0  0.64 0 0  0.66 0 0  0.68 0 0  0.7 0 0  0.72 0 0  0.74 0 0  0.76 0 0  0.78 0 0  0.8 0 0  0.82 0 0  0.84 0 0  0.86 0 0  0.88 0 0  0.9 0 0  0.92 0 0  0.9399999999999999 0 0  0.96 0 0  0.98 0 0  1 0 0  0 0.02 0  0.02 0.02 0  0.04 0.02 0  0.06 0.02 0  0.08 0.02 0  0.1 0.02 0  0.12 0.02 0  0.14 0.02 0  0.16 0.02 0  0.18 0.02 0  0.2 0.02 0  0.22 0.02 0  0.24 0.02 0  0.26 0.02 0  0.28 0.02 0  0.3 0.02 0  0.32 0.02 0  0.34 0.02 0  0.36 0.02 0  0.38 0.02 0  0.4 0.02 0  0.42 0.02 0  0.44 0.02 0  0.46 0.02 0  0.48 0.02 0  0.5 0.02 0  0.52 0.02 0  0.54 0.02 0  0.5600000000000001 0.02 0  0.58 0.02 0  0.6 0.02 0  0.62 0.02 0  0.64 0.02 0  0.66 0.02 0  0.68 0.02 0  0.7 0.02 0  0.72 0.02 0  0.74 0.02 0  0.76 0.02 0  0.78 0.02 0  0.8 0.02 0  0.82 0.02 0  0.84 0.02 0  0.86 0.02 0  0.88 0.02 0  0.9 0.02 0  0.92 0.02 0  0.9399999999999999 0.02 0  0.96 0.02 0  0.98 0.02 0  1 0.02 0  0 0.04 0  0.02 0.04 0  0.04 0.04 0  0.06 0.04 0  0.08 0.04 0  0.1 0.04 0  0.12 0.04 0  0.14 0.04 0  0.16 0.04 0  0.18 0.04 0  0.2 0.04 0  0.22 0.04 0  0.24 0.04 0  0.26 0.04 0  0.28 0.04 0  0.3 0.04 0  0.32 0.04 0  0.34 0.04 0  0.36 0.04 0  0.38 0.04 0  0.4 0.04 0  0.42 0.04 0  0.44 0.04 0  0.46 0.04 0  0.48 0.04 0  0.5 0.04 0  0.52 0.04 0  0.54 0.04 0  0.5600000000000001 0.04 0  0.58 0.04 0  0.6 0.04 0  0.62 0.04 0  0.64 0.04 0  0.66 0.04 0  0.68 0.04 0  0.7 0.04 0  0.72 0.04 0  0.74 0.04 0  0.76 0.04 0  0.78 0.04 0  0.8 0.04 0  0.82 0.04 0  0.84 0.04 0  0.86 0.04 0  0.88 0.04 0  0.9 0.04 0  0.92 0.04 0  0.9399999999999999 0.04 0  0.96 0.04 0  0.98 0.04 0  1 0.04 0  0 0.06 0  0.02 0.06 0  0.04 0.06 0  0.06 0.06 0  0.08 0.06 0  0.1 0.06 0  0.12 0.06 0  0.14 0.06 0  0.16 0.06 0  0.18 0.06 0  0.2 0.06 0  0.22 0.06 0  0.24 0.06 0  0.26 0.06 0  0.28 0.06 0  0.3 0.06 0  0.32 0.06 0  0.34 0.06 0  0.36 0.06 0  0.38 0.06 0  0.4 0.06 0  0.42 0.06 0  0.44 0.06 0  0.46 0.06 0  0.48 0.06 0  0.5 0.06 0  0.52 0.06 0  0.54 0.06 0  0.5600000000000001 0.06 0  0.58 0.06 0  0.6 0.06 0  0.62 0.06 0  0.64 0.06 0  0.66 0.06 0  0.68 0.06 0  0.7 0.06 0  0.72 0.06 0  0.74 0.06 0  0.76 0.06 0  0.78 0.06 0  0.8 0.06 0  0.82 0.06 0  0.84 0.06 0  0.86 0.06 0  0.88 0.06 0  0.9 0.06 0  0.92 0.06 0  0.9399999999999999 0.06 0  0.96 0.06 0  0.98 0.06 0  1 0.06 0  0 0.08 0  0.02 0.08 0  0.04 0.08 0  0.06 0.08 0  0.08 0.08 0  0.1 0.08 0  0.12 0.08 0  0.14 0.08 0  0.16 0.08 0  0.18 0.08 0  0.2 0.08 0  0.22 0.08 0  0.24 0.08 0  0.26 0.08 0  0.28 0.08 0  0.3 0.08 0  0.32 0.08 0  0.34 0.08 0  0.36 0.08 0  0.38 0.08 0  0.4 0.08 0  0.42 0.08 0  0.44 0.08 0  0.46 0.08 0  0.48 0.08 0  0.5 0.08 0  0.52 0.08 0  0.54 0.08 0  0.5600000000000001 0.08 0  0.58 0.08 0  0.6 0.08 0  0.62 0.08 0  0.64 0.08 0  0.66 0.08 0  0.68 0.08 0  0.7 0.08 0  0.72 0.08 0  0.74 0.08 0  0.76 0.08 0  0.78 0.08 0  0.8 0.08 0  0.82 0.08 0  0.84 0.08 0  0.86 0.08 0  0.88 0.08 0  0.9 0.08 0  0.92 0.08 0  0.9399999999999999 0.08 0  0.96 0.08 0  0.98 0.08 0  1 0.08 0  0 0.1 0  0.02 0.1 0  0.04 0.1 0  0.06 0.1 0  0.08 0.1 0  0.1 0.1 0  0.12 0.1 0  0.14 0.1 0  0.16 0.1 0  0.18 0.1 0  0.2 0.1 0  0.22 0.1 0  0.24 0.1 0  0.26 0.1 0  0.28 0.1 0  0.3 0.1 0  0.32 0.1 0  0.34 0.1 0  0.36 0.1 0  0.38 0.1 0  0.4 0.1 0  0.42 0.1 0  0.44 0.1 0  0.46 0.1 0  0.48 0.1 0  0.5 0.1 0  0.52 0.1 0  0.54 0.1 0  0.5600000000000001 0.1 0  0.58 0.1 0  0.6 0.1 0  0.62 0.1 0  0.64 0.1 0  0.66 0.1 0  0.68 0.1 0  0.7 0.1 0  0.72 0.1 0  0.74 0.1 0  0.76 0.1 0  0.78 0.1 0  0.8 0.1 0  0.82 0.1 0  0.84 0.1 0  0.86 0.1 0  0.88 0.1 0  0.9 0.1 0  0.92 0.1 0  0.9399999999999999 0.1 0  0.96 0.1 0  0.98 0.1 0  1 0.1 0  0 0.12 0  0.02 0.12 0  0.04 0.12 0  0.06 0.12 0  0.08 0.12 0  0.1 0.12 0  0.12 0.12 0  0.14 0.12 0  0.16 0.12 0  0.18 0.12 0  0.2 0.12 0  0.22 0.12 0  0.24 0.12 0  0.26 0.12 0  0.28 0.12 0  0.3 0.12 0  0.32 0.12 0  0.34 0.12 0  0.36 0.12 0  0.38 0.12 0  0.4 0.12 0  0.42 0.12 0  0.44 0.12 0  0.46 0.12 0  0.48 0.12 0  0.5 0.12 0  0.52 0.12 0  0.54 0.12 0  0.5600000000000001 0.12 0  0.58 0.12 0  0.6 0.12 0  0.62 0.12 0  0.64 0.12 0  0.66 0.12 0  0.68 0.12 0  0.7 0.12 0  0.72 0.12 0  0.74 0.12 0  0.76 0.12 0  0.78 0.12 0  0.8 0.12 0  0.82 0.12 0  0.84 0.12 0  0.86 0.12 0  0.88 0.12 0  0.9 0.12 0  0.92 0.12 0  0.9399999999999999 0.12 0  0.96 0.12 0  0.98 0.12 0  1 0.12 0  0 0.14 0  0.02 0.14 0  0.04 0.14 0  0.06 0.14 0  0.08 0.14 0  0.1 0.14 0  0.12 0.14 0  0.14 0.14 0  0.16 0.14 0  0.18 0.14 0  0.2 0.14 0  0.22 0.14 0  0.24 0.14 0  0.26 0.14 0  0.28 0.14 0  0.3 0.14 0  0.32 0.14 0  0.34 0.14 0  0.36 0.14 0  0.38 0.14 0  0.4 0.14 0  0.42 0.14 0  0.44 0.14 0  0.46 0.14 0  0.48 0.14 0  0.5 0.14 0  0.52 0.14 0  0.54 0.14 0  0.5600000000000001 0.14 0  0.58 0.14 0  0.6 0.14 0  0.62 0.14 0  0.64 0.14 0  0.66 0.14 0  0.68 0.14 0  0.7 0.14 0  0.72 0.14 0  0.74 0.14 0  0.76 0.14 0  0.78 0.14 0  0.8 0.14 0  0.82 0.14 0  0.84 0.14 0  0.86 0.14 0  0.88 0.14 0  0.9 0.14 0  0.92 0.14 0  0.9399999999999999 0.14 0  0.96 0.14 0  0.98 0.14 0  1 0.14 0  0 0.16 0  0.02 0.16 0  0.04 0.16 0  0.06 0.16 0  0.08 0.16 0  0.1 0.16 0  0.12 0.16 0  0.14 0.16 0  0.16 0.16 0  0.18 0.16 0  0.2 0.16 0  0.22 0.16 0  0.24 0.16 0  0.26 0.16 0  0.28 0.16 0  0.3 0.16 0  0.32 0.16 0  0.34 0.16 0  0.36 0.16 0  0.38 0.16 0  0.4 0.16 0  0.42 0.16 0  0.44 0.16 0  0.46 0.16 0  0.48 0.16 0  0.5 0.16 0  0.52 0.16 0  0.54 0.16 0  0.5600000000000001 0.16 0  0.58 0.16 0  0.6 0.16 0  0.62 0.16 0  0.64 0.16 0  0.66 0.16 0  0.68 0.16 0  0.7 0.16 0  0.72 0.16 0  0.74 0.16 0  0.76 0.16 0  0.78 0.16 0  0.8 0.16 0  0.82 0.16 0  0.84 0.16 0  0.86 0.16 0  0.88 0.16 0  0.9 0.16 0  0.92 0.16 0  0.9399999999999999 0.16 0  0.96 0.16 0  0.98 0.16 0  1 0.16 0  0 0.18 0  0.02 0.18 0  0.04 0.18 0  0.06 0.18 0  0.08 0.18 0  0.1 0.18 0  0.12 0.18 0  0.14 0.18 0  0.16 0.18 0  0.18 0.18 0  0.2 0.18 0  0.22 0.18 0  0.24 0.18 0  0.26 0.18 0  0.28 0.18 0  0.3 0.18 0  0.32 0.18 0  0.34 0.18 0  0.36 0.18 0  0.38 0.18 0  0.4 0.18 0  0.42 0.18 0  0.44 0.18 0  0.46 0.18 0  0.48 0.18 0  0.5 0.18 0  0.52 0.18 0  0.54 0.18 0  0.5600000000000001 0.18 0  0.58 0.18 0  0.6 0.18 0  0.62 0.18 0  0.64 0.18 0  0.66 0.18 0  0.68 0.18 0  0.7 0.18 0  0.72 0.18 0  0.74 0.18 0  0.76 0.18 0  0.78 0.18 0  0.8 0.18 0  0.82 0.18 0  0.84 0.18 0  0.86 0.18 0  0.88 0.18 0  0.9 0.18 0  0.92 0.18 0  0.9399999999999999 0.18 0  0.96 0.18 0  0.98 0.18 0  1 0.18 0  0 0.2 0  0.02 0.2 0  0.04 0.2 0  0.06 0.2 0  0.08 0.2 0  0.1 0.2 0  0.12 0.2 0  0.14 0.2 0  0.16 0.2 0  0.18 0.2 0  0.2 0.2 0  0.22 0.2 0  0.24 0.2 0  0.26 0.2 0  0.28 0.2 0  0.3 0.2 0  0.32 0.2 0  0.34 0.2 0  0.36 0.2 0  0.38 0.2 0  0.4 0.2 0  0.42 0.2 0  0.44 0.2 0  0.46 0.2 0  0.48 0.2 0  0.5 0.2 0  0.52 0.2 0  0.54 0.2 0  0.5600000000000001 0.2 0  0.58 0.2 0  0.6 0.2 0  0.62 0.2 0  0.64 0.2 0  0.66 0.2 0  0.68 0.2 0  0.7 0.2 0  0.72 0.2 0  0.74 0.2 0  0.76 0.2 0  0.78 0.2 0  0.8 0.2 0  0.82 0.2 0  0.84 0.2 0  0.86 0.2 0  0.88 0.2 0  0.9 0.2 0  0.92 0.2 0  0.9399999999999999 0.2 0  0.96 0.2 0  0.98 0.2 0  1 0.2 0  0 0.22 0  0.02 0.22 0  0.04 0.22 0  0.06 0.22 0  0.08 0.22 0  0.1 0.22 0  0.12 0.22 0  0.14 0.22 0  0.16 0.22 0  0.18 0.22 0  0.2 0.22 0  0.22 0.22 0  0.24 0.22 0  0.26 0.22 0  0.28 0.22 0  0.3 0.22 0  0.32 0.22 0  0.34 0.22 0  0.36 0.22 0  0.38 0.22 0  0.4 0.22 0  0.42 0.22 0  0.44 0.22 0  0.46 0.22 0  0.48 0.22 0  0.5 0.22 0  0.52 0.22 0  0.54 0.22 0  0.5600000000000001 0.22 0  0.58 0.22 0  0.6 0.22 0  0.62 0.22 0  0.64 0.22 0  0.66 0.22 0  0.68 0.22 0  0.7 0.22 0  0.72 0.22 0  0.74 0.22 0  0.76 0.22 0  0.78 0.22 0  0.8 0.22 0  0.82 0.22 0  0.84 0.22 0  0.86 0.22 0  0.88 0.22 0  0.9 0.22 0  0.92 0.22 0  0.9399999999999999 0.22 0  0.96 0.22 0  0.98 0.22 0  1 0.22 0  0 0.24 0  0.02 0.24 0  0.04 0.24 0  0.06 0.24 0  0.08 0.24 0  0.1 0.24 0  0.12 0.24 0  0.14 0.24 0  0.16 0.24 0  0.18 0.24 0  0.2 0.24 0  0.22 0.24 0  0.24 0.24 0  0.26 0.24 0  0.28 0.24 0  0.3 0.24 0  0.32 0.24 0  0.34 0.24 0  0.36 0.24 0  0.38 0.24 0  0.4 0.24 0  0.42 0.24 0  0.44 0.24 0  0.46 0.24 0  0.48 0.24 0  0.5 0.24 0  0.52 0.24 0  0.54 0.24 0  0.5600000000000001 0.24 0  0.58 0.24 0  0.6 0.24 0  0.62 0.24 0  0.64 0.24 0  0.66 0.24 0  0.68 0.24 0  0.7 0.24 0  0.72 0.24 0  0.74 0.24 0  0.76 0.24 0  0.78 0.24 0  0.8 0.24 0  0.82 0.24 0  0.84 0.24 0  0.86 0.24 0  0.88 0.24 0  0.9 0.24 0  0.92 0.24 0  0.9399999999999999 0.24 0  0.96 0.24 0  0.98 0.24 0  1 0.24 0  0 0.26 0  0.02 0.26 0  0.04 0.26 0  0.06 0.26 0  0.08 0.26 0  0.1 0.26 0  0.12 0.26 0  0.14 0.26 0  0.16 0.26 0  0.18 0.26 0  0.2 0.26 0  0.22 0.26 0  0.24 0.26 0  0.26 0.26 0  0.28 0.26 0  0.3 0.26 0  0.32 0.26 0  0.34 0.26 0  0.36 0.26 0  0.38 0.26 0  0.4 0.26 0  0.42 0.26 0  0.44 0.26 0  0.46 0.26 0  0.48 0.26 0  0.5 0.26 0  0.52 0.26 0  0.54 0.26 0  0.5600000000000001 0.26 0  0.58 0.26 0  0.6 0.26 0  0.62 0.26 0  0.64 0.26 0  0.66 0.26 0  0.68 0.26 0  0.7 0.26 0  0.72 0.26 0  0.74 0.26 0  0.76 0.26 0  0.78 0.26 0  0.8 0.26 0  0.82 0.26 0  0.84 0.26 0  0.86 0.26 0  0.88 0.26 0  0.9 0.26 0  0.92 0.26 0  0.9399999999999999 0.26 0  0.96 0.26 0  0.98 0.26 0  1 0.26 0  0 0.28 0  0.02 0.28 0  0.04 0.28 0  0.06 0.28 0  0.08 0.28 0  0.1 0.28 0  0.12 0.28 0  0.14 0.28 0  0.16 0.28 0  0.18 0.28 0  0.2 0.28 0  0.22 0.28 0  0.24 0.28 0  0.26 0.28 0  0.28 0.28 0  0.3 0.28 0  0.32 0.28 0  0.34 0.28 0  0.36 0.28 0  0.38 0.28 0  0.4 0.28 0  0.42 0.28 0  0.44 0.28 0  0.46 0.28 0  0.48 0.28 0  0.5 0.28 0  0.52 0.28 0  0.54 0.28 0  0.5600000000000001 0.28 0  0.58 0.28 0  0.6 0.28 0  0.62 0.28 0  0.64 0.28 0  0.66 0.28 0  0.68 0.28 0  0.7 0.28 0  0.72 0.28 0  0.74 0.28 0  0.76 0.28 0  0.78 0.28 0  0.8 0.28 0  0.82 0.28 0  0.84 0.28 0  0.86 0.28
[...]
<PointData  Scalars="q_f"> 
<DataArray  type="Float64"  Name="q_f"  format="ascii">9.9999887432329859e-01  9.9999860557866804e-01  9.9999746402089262e-01  9.9999514041360293e-01  9.9999089219194393e-01  9.9998351983387379e-01  9.9997127277836750e-01  9.9995177995471773e-01  9.9992206795800298e-01  9.9987873179689724e-01  9.9981831007164224e-01  9.9973787767673983e-01  9.9963580287841292e-01  9.9951253318125355e-01  9.9937120158543302e-01  9.9921781650861308e-01  9.9906084574127274e-01  9.9891013796250971e-01  9.9877532148466630e-01  9.9866402162995926e-01  9.9858036866397903e-01  9.9852426089581858e-01  9.9849167735993372e-01  9.9847603719718425e-01  9.9847027025050661e-01  9.9846901267569865e-01  9.9847027025106472e-01  9.9847603719707556e-01  9.9849167735966893e-01  9.9852426089572655e-01  9.9858036866419253e-01  9.9866402163033408e-01  9.9877532148429038e-01  9.9891013796248629e-01  9.9906084574133736e-01  9.9921781650855501e-01  9.9937120158559523e-01  9.9951253318123112e-01  9.9963580287857068e-01  9.9973787767684208e-01  9.9981831007194710e-01  9.9987873179640863e-01  9.9992206795773664e-01  9.9995177995491646e-01  9.9997127277835940e-01  9.9998351983357481e-01  9.9999089219251092e-01  9.9999514041341231e-01  9.9999746402106804e-01  9.9999860557823705e-01  9.9999887432329859e-01  9.9999849265271057e-01  9.9999889435785783e-01  9.9999812547882672e-01  9.9999655525430364e-01  9.9999382197881759e-01  9.9998929460636099e-01  9.9998209842086583e-01  9.9997111337908451e-01  9.9995501252415475e-01  9.9993236407836050e-01  9.9990180835470277e-01  9.9986230333642079e-01  9.9981340944603858e-01  9.9975555950222883e-01  9.9969024214504054e-01  9.9962002542689354e-01  9.9954836856316176e-01  9.9947921477115886e-01  9.9941641863151687e-01  9.9936312107716951e-01  9.9932122291911463e-01  9.9929110563361512e-01  9.9927169807316518e-01  9.9926089871992707e-01  9.9925625879238922e-01  9.9925574591097588e-01  9.9925837193081413e-01  9.9926449918009352e-01  9.9927572948821997e-01  9.9929440344530374e-01  9.9932285543805632e-01  9.9936263925366142e-01  9.9941394323642363e-01  9.9947534998748666e-01  9.9954398916448095e-01  9.9961601928463983e-01  9.9968729149266422e-01  9.9975401741436243e-01  9.9981328714306461e-01  9.9986334645784469e-01  9.9990361881143552e-01  9.9993452216168421e-01  9.9995716704179105e-01  9.9997302684192824e-01  9.9998365123028765e-01  9.9999046175039574e-01  9.9999463695126334e-01  9.9999707037756003e-01  9.9999836917875562e-01  9.9999885064341587e-01  9.9999849265271057e-01  9.9999665811971516e-01  9.9999773847831996e-01  9.9999630883335400e-01  9.9999330884570381e-01  9.9998818409246293e-01  9.9997988255962644e-01  9.9996699636937103e-01  9.9994781777525621e-01  9.9992045604982716e-01  9.9988304752784429e-01  9.9983405409163206e-01  9.9977261462885980e-01  9.9969888396238216e-01  9.9961427510428336e-01  9.9952152218155654e-01  9.9942450888413026e-01  9.9932785776334998e-01  9.9923633717582327e-01  9.9915419791429361e-01  9.9908458251321930e-01  9.9902914512263075e-01  9.9898797725206334e-01  9.9895986397037762e-01  9.9894281413054165e-01  9.9893473843540037e-01  9.9893410647674707e-01  9.9894041406364364e-01  9.9895433599234384e-01  9.9897752126016037e-01  9.9901207385849566e-01  9.9905985431671096e-01  9.9912178400818175e-01  9.9919733171669933e-01  9.9928431765552739e-01  9.9937908343162596e-01  9.9947698242533500e-01  9.9957306561967241e-01  9.9966279684259329e-01  9.9974263814559539e-01  9.9981039512945369e-01  9.9986528471081004e-01  9.9990775959331524e-01  9.9993917354836981e-01  9.9996138911255517e-01  9.9997641640315282e-01  9.9998613943201387e-01  9.9999214801260050e-01  9.9999565859040573e-01  9.9999747702901243e-01  9.9999792606767168e-01  9.9999665811971516e-01  9.9999217854145250e-01  9.9999493541290418e-01  9.9999184284811682e-01  9.9998523168534115e-01  9.9997394246485016e-01  9.9995569049390343e-01  9.9992743038995335e-01  9.9988549957585748e-01  9.9982589152874757e-01  9.9974472882834597e-01  9.9963891554957329e-01  9.9950688315422109e-01  9.9934928175184623e-01  9.9916943289388416e-01  9.9897337715800361e-01  9.9876942051589446e-01  9.9856720047723047e-01  9.9837642347386624e-01  9.9820552867218681e-01  9.9806057444202689e-01  9.9794460469454238e-01  9.9785764138021715e-01  9.9779730000885247e-01  9.9775987214538586e-01  9.9774161514363502e-01  9.9773993520399851e-01  9.9775417555081769e-01  9.9778580812868078e-01  9.9783798452879902e-01  9.9791455119828709e-01  9.9801874134536250e-01  9.9815190980864821e-01  9.9831259583518883e-01  9.9849616950088038e-01  9.9869515248236929e-01  9.9890014484654543e-01  9.9910113999100014e-01  9.9928892289016213e-01  9.9945624365879771e-01  9.9959853868825510e-01  9.9971410647497039e-01  9.9980378830996675e-01  9.9987031094567613e-01  9.9991749304437250e-01  9.9994949917980303e-01  9.9997026332032390e-01  9.9998312564045644e-01  9.9999065119400676e-01  9.9999452743360939e-01  9.9999535831674002e-01  9.9999217854145250e-01  9.9998216987656685e-01  9.9998895532297583e-01  9.9998247491047709e-01  9.9996830304594564e-01  9.9994406977663353e-01  9.9990490661587550e-01  9.9984431774119453e-01  9.9975451902032697e-01  9.9962703564769240e-01  9.9945372317866588e-01  9.9922816304744277e-01  9.9894722926655644e-01  9.9861251795822381e-01  9.9823124281583797e-01  9.9781625603016166e-01  9.9738501823536696e-01  9.9695759516575688e-01  9.9655402960722927e-01  9.9619163487117779e-01  9.9588281238489995e-01  9.9563388450110324e-01  9.9544518577730134e-01  9.9531234850242378e-01  9.9522844382989284e-01  9.9518644793466926e-01  9.9518148545359819e-01  9.9521230903198743e-01  9.9528166293544496e-01  9.9539541759213612e-01  9.9556077172456714e-01  9.9578375580852685e-01  9.9606675574226633e-01  9.9640667610501188e-01  9.9679413148794227e-01  9.9721396198225276e-01  9.9764696456050939e-01  9.9807247114107811e-01  9.9847119135010942e-01  9.9882768888895479e-01  9.9913198839372042e-01  9.9938007036213738e-01  9.9957331314097675e-01  9.9971718261872156e-01  9.9981958620263278e-01  9.9988928663330612e-01  9.9993464985595537e-01  9.9996283600898239e-01  9.9997937582436391e-01  9.9998790594473219e-01  9.9998963706083399e-01  9.9998216987656685e-01  9.9996080966492817e-01  9.9997676969536542e-01  9.9996376448165925e-01  9.9993456419291649e-01  9.9988456699265882e-01  9.9980382421521641e-01  9.9967904597543200e-01  9.9949436839402750e-01  9.9923262437021565e-01  9.9887743208237889e-01  9.9841607568706892e-01  9.9784266259642562e-01  9.9716092989220828e-01  9.9638592738238907e-01  9.9554385800586764e-01  9.9466981699846158e-01  9.9380366607412063e-01  9.9298482602584481e-01  9.9224710170941444e-01  9.9161468839385403e-01  9.9110022015245680e-01  9.9070519371947485e-01  9.9042249992346287e-01  9.9024038474113873e-01  9.9014678030444114e-01  9.9013321548881905e-01  9.9019738649300304e-01  9.9034388604002233e-01  9.9058267099049979e-01  9.9092590305997430e-01  9.9138403334578684e-01  9.9196074159780523e-01  9.9264983372166105e-01  9.9343332880757551e-01  9.9428213623210804e-01  9.9515898380367251e-01  9.9602315033553668e-01  9.9683595506472078e-01  9.9756578019297804e-01  9.9819154617192640e-01  9.9870402799503477e-01  9.9910501437891475e-01  9.9940484398902640e-01  9.9961914135251217e-01  9.9976557456790149e-01  9.9986123193355447e-01  9.9992087899150839e-01  9.9995600102088789e-01  9.9997415235422593e-01  9.9997765005519579e-01  9.9996080966492817e-01  9.9991705354188964e-01  9.9995292015208570e-01  9.9992794743664515e-01  9.9987016509488214e-01  9.9977111693641152e-01  9.9961133374810429e-01  9.9936481294762136e-01  9.9900059804897456e-01  9.9848551448432399e-01  9.9778818510316525e-01  9.9688468707194844e-01  9.9576481244274695e-01  9.9443717169128931e-01  9.9293216048654831e-01  9.9130109877223638e-01  9.8961131884112108e-01  9.8793795891828240e-01  9.8635418442916167e-01  9.8492199848929418e-01  9.8368563470012493e-01  9.8266884045165814e-01  9.8187630329465636e-01  9.8129843347873347e-01  9.8091797530138580e-01  9.8071707601313263e-01  9.8068274298024849e-01  9.8081118533697598e-01  9.8110905567173035e-01  9.8159134272513049e-01  9.8227553765811071e-01  9.8317725297198921e-01  9.8430132947809079e-01  9.8563530691804513e-01  9.8714682653151198e-01  9.8878339444042629e-01  9.9047686342141938e-01  9.9215136699299955e-01  9.9373322625368465e-01  9.9516064337106203e-01  9.9639092768768522e-01  9.9740377713634232e-01  9.9820033460442725e-01  9.9879887530219347e-01  9.9922866704835256e-01  9.9952364201769772e-01  9.9971712971609028e-01  9.9983825025340678e-01  9.9990983527736776e-01  9.9994690645805384e-01  9.9995361619378920e-01  9.9991705354188964e-01  9.9983099388149721e-01  9.9990806720669867e-01  9.9986222258251067e-01  9.9975242085068461e-01  9.9956402691141200e-01  9.9926054859387559e-01  9.9879335792768975e-01  9.9810467171050898e-01  9.9713314576545475e-01  9.9582190539416815e-01  9.9412820425164383e-01  9.9203611903320976e-01  9.8956553119781798e-01  9.8677610969789309e-01  9.8376480466814309e-01  9.8065483085840133e-01  9.7757991127833654e-01  9.7466703326764392e-01  9.7202175355081644e-01  9.6971888602847989e-01  9.6780004299917266e-01  9.6627771683981900e-01  9.6514375407904518e-01  9.6437910060055254e-01  9.6396384334852725e-01  9.6388227508993141e-01  9.6412897432533928e-01  9.6471035082160050e-01  9.6564594082100985e-01  9.6695647491054793e-01  9.6865362228168850e-01  9.7074784405528314e-01  9.7321046505723696e-01  9.7598838549921896e-01  9.7899259260644245e-01  9.8210665399902830e-01  9.8519760831381342e-01  9.8813255394048172e-01  9.9079641745651859e-01  9.9310639331985351e-01  9.9501966155561483e-01  9.9653319326266110e-01  9.9767682397933333e-01  9.9850233562868118e-01  9.9907167760438798e-01  9.9944684031208564e-01  9.9968269084394967e-01  9.9982263975466268e-01  9.9989525313840844e-01  9.9990741484838030e-01  9.9983099388149721e-01  9.9966852951889063e-01  9.9982701870499857e-01  9.9974663420790844e-01  9.9954627886712089e-01  9.9920219323284576e-01  9.9864904455211601e-01  9.9779944385405928e-01  9.9655121901122967e-01  9.9479428163150552e-01  9.9243203130274293e-01  9.8939304049763599e-01  9.8565433529727264e-01  9.8126310737506228e-01  9.7633409343843314e-01  9.7104473171599681e-01  9.6560984732788901e-01  9.6025195338255320e-01  9.5517363624441787e-01  9.5053811882879613e-01  9.4646007600171189e-01  9.4300697348444917e-01  9.4020904974156572e-01  9.3807308652014909e-01  9.3659522419852137e-01  9.3576604343530734e-01  9.3558390583308371e-01  9.3603457621465569e-01  9.3711977228051624e-01  9.3885670515967290e-01  9.4126510542660602e-01  9.4432487368363760e-01  9.4804129111556545e-01  9.5237446547768545e-01  9.5722997873538473e-01  9.6247055114510105e-01  9.6791309456373942e-01  9.7333969342292270e-01  9.7852421568072223e-01  9.8326277637288861e-01  9.8740150258002535e-01  9.9085378799548762e-01  9.9360331495256227e-01  9.9569411072011282e-01  9.9721226728383927e-01  9.9826505696039847e-01  9.9896229410659754e-01  9.9940267464175692e-01  9.9966510699131050e-01  9.9980151973565767e-01  9.9982226399248997e-01  9.9966852951889063e-01  9.9937426608845692e-01  9.9968631653564355e-01  9.9955185820099535e-01  9.9920079317530608e-01  9.9859721406750446e-01  9.9762956984288786e-01  9.9614659490590751e-01  9.9397715686696220e-01  9.9093191380530521e-01  9.8684894288540870e-01  9.8162978182466742e-01  9.7524014823900773e-01  9.6778577925750697e-01  9.5949676002171924e-01  9.5068224220976338e-01  9.4170038933651246e-01  9.3288933974281707e-01  9.2453546782357854e-01  9.1685797039394301e-01  9.1001043392863135e-01  9.0409367811074259e-01  8.9917653249834895e-01  8.9531655118421249e-01  8.9256727913945089e-01  8.9097092175390347e-01  8.9057240356902601e-01  8.9135344126318772e-01  8.9329438173493370e-01  8.9633285220905945e-01  9.0056741907843574e-01  9.0593907853321076e-01  9.1211514267277716e-01  9.1942531697830066e-01  9.2745809953088565e-01  9.3612275229135833e-01  9.4514076446410034e-01  9.5418155465602683e-01  9.6288542021635293e-01  9.7090890361083992e-01  9.7797768294327780e-01  9.8392359740090263e-01  9.8869661499509542e-01  9.9235276017774576e-01  9.9502545965439804e-01  9.9689032881953643e-01  9.9813234845777232e-01  9.9892086270642955e-01  9.9939292843414163e-01  9.9963874048689394e-01  9.9967184700773748e-01  9.9937426608845692e-01  9.9886312897579277e-01  9.9945169046462090e-01  9.9923746611754360e-01  9.9864651174144081e-01  9.9762986387656138e-01  9.9600340209271465e-01  9.9352169240652355e-01  9.8989463342442041e-01  9.8485298881014771e-01  9.7806208953959461e-01  9.6947131705915102e-01  9.5905678227426439e-01  9.4696376009073313e-01  9.3373749634938497e-01  9.1986736787221057e-01  9.0592130325377673e-01  8.9234333423871637e-01  8.7946021152607423e-01  8.6750017164161064e-01  8.5663085770898417e-01  8.4699342565389479e-01  8.3873804133212626e-01  8.3204787565800697e-01  8.2713004722060168e-01  8.2418360246072897e-01  8.2323071877681298e-01  8.2462549517233352e-01  8.2782450481240155e-01  8.3293332167612610e-01  8.4007145219581425e-01  8.4903237605489090e-01  8.5911209177691128e-01  8.7057335650884138e-01  8.8305956462184143e-01  8.9661318273776613e-01  9.1071337832959354e-01  9.2494969732816845e-01  9.3879802533326751e-01  9.5170433525696740e-01  9.6319710281287496e-01  9.7296213787120711e-01  9.8087430112513518e-01  9.8698691354288726e-01  9.9149002500442041e-01  9.9465408860798199e-01  9.9677470151662184e-01  9.9812868026364832e-01  9.9894334395143247e-01  9.9936828894359075e-01  9.9941727047458584e-01  9.9886312897579277e-01  9.9801215625121376e-01  9.9907592289971670e-01  9.9875127201333280e-01  9.9779604537374689e-01  9.9615050662540228e-01  9.9352147828818249e-01  9.8953859100922303e-01  9.8370876114104411e-01  9.7570320852470438e-01  9.6493920202281325e-01  9.5123075739988228e-01  9.3512808489666743e-01  9.1654769792917656e-01  8.9645802479921455e-01  8.7610320568888944e-01  8.5594322506964815e-01  8.3653767833236203e-01  8.1806297018893315e-01  8.0062971184814435e-01  7.8436574769858203e-01  7.6946708280271447e-01  7.5624265755668596e-01  7.4514052527727603e-01  7.3670098571819398e-01  7.3135711794967917e-01  7.2944498035457039e-01  7.3129360669299759e-01  7.3644529913990364e-01  7.4515124957106271e-01  7.5453757931352650e-01  7.7161107309317489e-01  7.9216778780815111e-01  8.0089108472647064e-01  8.2174322372059594e-01  8.4151734180918214e-01  8.6201574888706045e-01  8.8303821551000272e-01  9.0382557903324912e-01  9.2348789887748917e-01  9.4123751778511888e-01  9.5650746187995961e-01  9.6901978464832472e-01  9.7878437387865780e-01  9.8604303300736129e-01  9.9118432278087742e-01  9.9465473576983354e-01  9.9688460232299336e-01  9.9823361599377058e-01  9.9893852703640384e-01  9.9900463617781743e-01  9.9801215625121376e-01  9.9665507219159244e-01  9.9849815551072896e-01  9.9803177348462413e-01  9.9654662590723886e-01  9.9398390006240422e-01  9.8991889633436292e-01  9.8371755691236817e-01  9.7483509814170943e-01  9.6231867378339819e-01  9.4678459983116692e-01  9.2493557653100011e-01  9.0138808603878717e-01  8.7597854348731008e-01  8.4565230577380368e-01  8.1877704559212816e-01  7.9184895360748286e-01  7.6647259601562645e-01  7.4203905403897807e-01  7.1836630665961432e-01  6.9548438700757109e-01  6.7367964717377338e-01  6.5353338870055289e-01  6.3595284824543541e-01  6.2202161553739566e-01  6.1279031972532705e-01  6.0875068474036764e-01  6.0738465519735385e-01  6.2443987463172457e-01  6.2976995072481790e-01  6.4027482700655303e-01  6.2646924396773496e-01  6.3342118801615555e-01  7.3507958414125429e-01  7.5088271385532479e-01  7.7224128087791266e-01  7.9817647985231854e-01  8.2699808162071209e-01  8.5624427835041073e-01  8.8447900532731305e-01  9.1043563848079501e-01  9.3312271334227470e-01  9.5197289816262731e-01  9.6686444750547529e-01  9.7805343200065975e-01  9.8605287464819791e-01  9.9149664134217763e-01  9.9501933167808310e-01  9.9716327071782829e-01  9.9828561719009956e-01  9.9836443474471559e-01  9.9665507219159244e-01  9.9458369875916197e-01  9.9764531761366437e-01  9.9701152811766947e-01  9.9479537974920595e-01  9.9096780134550755e-01  9.8485780205552453e-01  9.7561236001675744e-01  9.6272556622410743e-01  9.4387633531211190e-01  9.2151999825116127e-01  8.9195271163960754e-01  8.4893468003639738e-01  8.2090587767265222e-01  7.8572316753645399e-01  7.4756318232185570e-01  7.1970717013534147e-01  6.8862621332041851e-01  6.5898610490764575e-01  6.2919353716295756e-01  5.9911061888064410e-01  5.6911983595070814e-01  5.4013746958099806e-01  5.1374988704521474e-01  4.9196411217977659e-01  4.7635121581598056e-01  4.6670481999208374e-01  4.6629625695161225e-01  4.4156269274183918e-01  4.8582107585056156e-01  5.2364815044711233e-01  5.9191330712980472e-01  8.9811680555408291e-01  8.5549483142635696e-01  4.2628339833334394e-01  7.0911067369008352e-01  7.1959556751070941e-01  7.5793382938261900e-01  7.9611693859096921e-01  8.3406014738051815e-01  8.6983548188463355e-01  9.0176342942928400e-01  9.2876591708847567e-01  9.5042394223370030e-01  9.6690916924104919e-01  9.7882562110685356e-01  9.8701129796410347e-01  9.9235074624882702e-01  9.9562188271645069e-01  9.9733769030646313e-01  9.9741429703160034e-01  9.9458369875916197e-01  9.9156062656289046e-01  9.9643809481104517e-01  9.9562752152310352e-01  9.9244039950368346e-01  9.8692680792898391e-01  9.7828709084679499e-01  9.6521380326450890e-01  9.4442928348474819e-01  9.2354632689336058e-01  8.8429319668702322e-01  8.3024989718350561e-01  8.1242716707054297e-01  7.2971559398978614e-01  6.9495084349886505e-01  6.9217281221560978e-01  6.2919431090046485e-01  6.1534185703029420e-01  5.8287005227947553e-01  5.4879537229522868e-01  5.1268608693974926e-01  4.7468826350566878e-01  4.3582126987029080e-01  3.9837842485976616e-01  3.6577419132822014e-01  3.4158163661007540e-01  3.2772674538952551e-01  2.9580249641453998e-01  4.0929090886561958e-01  7.6922725943304071e-01  4.8868278729988790e-01  2.6341734963154606e-01  3.8936853489320450e-01  6.9115247516464706e-01  6.0110862375689444e-01  7.2834837371680017e-01  6.3307057494478380e-01  6.8148944760689600e-01  7.2636654785105426e-01  7.7368338921844648e-01  8.1985822320967916e-01  8.6224564522158054e-01  8.9893762002813471e-01  9.2894091754214758e-01  9.5214522258267065e-01  9.6914029301606730e-01  9.8094194973236692e-01  9.8870977682309324e-01  9.9350336336621903e-01  9.9602319714225884e-01  9.9606649783094714e-01  9.9156062656289046e-01  9.8734706952571150e-01  9.9480010755296611e-01  9.9383238639689753e-01  9.8942840336936755e-01  9.8178366970485242e-01  9.6973014507965871e-01  9.5166216618595045e-01  9.2923509366368018e-01  8.8732567825726727e-01  9.1486597055384056e-01  7.0873598582691544e-01  8.1007802964733222e-01  7.3542036722940352e-01  6.3710645540357236e-01  6.9153345708728231e-01  6.2117784579178070e-01  5.5718232216253216e-01  5.3111781717772111e-01  4.9857883844489725e-01  4.6163110213827113e-01  4.1898023946663643e-01  3.7100386995641615e-01  3.2047594027415749e-01  2.7276671612203351e-01  2.3469955072632837e-01  2.1605423620521871e-01  2.1841039174418744e-01  1.1191898446819266e-01  4.4223578226248939e-01  4.3936387070567429e-01  3.4871302862051140e-01  1.3696348387492205e-01  3.5522056135006064e-01  3.0989420429424736e-01  5.1298537501741048e-01  5.4834192702638240e-01  6.0575324632861460e-01  6.5355155482089422e-01  7.0752528357234246e-01  7.6285148913059275e-01  8.1567160039084852e-01  8.6284190407645844e-01  9.0239078447306209e-01  9.3358941225620484e-01  9.5680084178513358e-01  9.7312269667290718e-01  9.8397517854177985e-01  9.9072604968885847e-01  9.9428338848907838e-01  9.9424106357747144e-01  9.8734706952571150e-01  9.8174739092653762e-01  9.9267278885212318e-01  9.9160565197115613e-01  9.8574541564536411e-01  9.7556814347736920e-01  9.5965819100075422e-01  9.3593571403539977e-01  8.9710520827318119e-01  9.1665314475917847e-01  9.1785930457327691e-01  8.8937462234654008e-01  7.6492311308269978e-01  6.7217896063366389e-01  5.7171281484041081e-0