<?xml version="1.0"?>
<VTKFile type="UnstructuredGrid"  version="0.1"  >
<UnstructuredGrid>
<Piece  NumberOfPoints="2601" NumberOfCells="5000">
<Points>
<DataArray  type="Float64"  NumberOfComponents="3"  format="ascii">0 0 0  0.02 0 0  0.04 0 0  0.06 0 0  0.08 0 0  0.1 0 0  0.12 0 0  0.14 0 0  0.16 0 0  0.18 0 0  0.2 0 0  0.22 0 0  0.24 0 0  0.26 0 0  0.28 0 0  0.3 0 0  0.32 0 0  0.34 0 0  0.36 0 0  0.38 0 0  0.4 0 0  0.42 0 0  0.44 0 0  0.46 0 0  0.48 0 0  0.5 0 0  0.52 0 0  0.54 0 0  0.5600000000000001 0 0  0.58 0 0  0.6 0 0  0.62 0 0  0.64 0 0  0.66 0 0  0.68 0 0  0.7 0 0  0.72 0 0  0.74 0 0  0.76 0 0  0.78 0 0  0.8 0 0  0.82 0 0  0.84 0 0  0.86 0 0  0.88 0 0  0.9 0 0  0.92 0 0  0.9399999999999999 0 0  0.96 0 0  0.98 0 0  1 0 0  0 0.02 0  0.02 0.02 0  0.04 0.02 0  0.06 0.02 0  0.08 0.02 0  0.1 0.02 0  0.12 0.02 0  0.14 0.02 0  0.16 0.02 0  0.18 0.02 0  0.2 0.02 0  0.22 0.02 0  0.24 0.02 0  0.26 0.02 0  0.28 0.02 0  0.3 0.02 0  0.32 0.02 0  0.34 0.02 0  0.36 0.02 0  0.38 0.02 0  0.4 0.02 0  0.42 0.02 0  0.44 0.02 0  0.46 0.02 0  0.48 0.02 0  0.5 0.02 0  0.52 0.02 0  0.54 0.02 0  0.5600000000000001 0.02 0  0.58 0.02 0  0.6 0.02 0  0.62 0.02 0  0.64 0.02 0  0.66 0.02 0  0.68 0.02 0  0.7 0.02 0  0.72 0.02 0  0.74 0.02 0  0.76 0.02 0  0.78 0.02 0  0.8 0.02 0  0.82 0.02 0  0.84 0.02 0  0.86 0.02 0  0.88 0.02 0  0.9 0.02 0  0.92 0.02 0  0.9399999999999999 0.02 0  0.96 0.02 0  0.98 0.02 0  1 0.02 0  0 0.04 0  0.02 0.04 0  0.04 0.04 0  0.06 0.04 0  0.08 0.04 0  0.1 0.04 0  0.12 0.04 0  0.14 0.04 0  0.16 0.04 0  0.18 0.04 0  0.2 0.04 0  0.22 0.04 0  0.24 0.04 0  0.26 0.04 0  0.28 0.04 0  0.3 0.04 0  0.32 0.04 0  0.34 0.04 0  0.36 0.04 0  0.38 0.04 0  0.4 0.04 0  0.42 0.04 0  0.44 0.04 0  0.46 0.04 0  0.48 0.04 0  0.5 0.04 0  0.52 0.04 0  0.54 0.04 0  0.5600000000000001 0.04 0  0.58 0.04 0  0.6 0.04 0  0.62 0.04 0  0.64 0.04 0  0.66 0.04 0  0.68 0.04 0  0.7 0.04 0  0.72 0.04 0  0.74 0.04 0  0.76 0.04 0  0.78 0.04 0  0.8 0.04 0  0.82 0.04 0  0.84 0.04 0  0.86 0.04 0  0.88 0.04 0  0.9 0.04 0  0.92 0.04 0  0.9399999999999999 0.04 0  0.96 0.04 0  0.98 0.04 0  1 0.04 0  0 0.06 0  0.02 0.06 0  0.04 0.06 0  0.06 0.06 0  0.08 0.06 0  0.1 0.06 0  0.12 0.06 0  0.14 0.06 0  0.16 0.06 0  0.18 0.06 0  0.2 0.06 0  0.22 0.06 0  0.24 0.06 0  0.26 0.06 0  0.28 0.06 0  0.3 0.06 0  0.32 0.06 0  0.34 0.06 0  0.36 0.06 0  0.38 0.06 0  0.4 0.06 0  0.42 0.06 0  0.44 0.06 0  0.46 0.06 0  0.48 0.06 0  0.5 0.06 0  0.52 0.06 0  0.54 0.06 0  0.5600000000000001 0.06 0  0.58 0.06 0  0.6 0.06 0  0.62 0.06 0  0.64 0.06 0  0.66 0.06 0  0.68 0.06 0  0.7 0.06 0  0.72 0.06 0  0.74 0.06 0  0.76 0.06 0  0.78 0.06 0  0.8 0.06 0  0.82 0.06 0  0.84 0.06 0  0.86 0.06 0  0.88 0.06 0  0.9 0.06 0  0.92 0.06 0  0.9399999999999999 0.06 0  0.96 0.06 0  0.98 0.06 0  1 0.06 0  0 0.08 0  0.02 0.08 0  0.04 0.08 0  0.06 0.08 0  0.08 0.08 0  0.1 0.08 0  0.12 0.08 0  0.14 0.08 0  0.16 0.08 0  0.18 0.08 0  0.2 0.08 0  0.22 0.08 0  0.24 0.08 0  0.26 0.08 0  0.28 0.08 0  0.3 0.08 0  0.32 0.08 0  0.34 0.08 0  0.36 0.08 0  0.38 0.08 0  0.4 0.08 0  0.42 0.08 0  0.44 0.08 0  0.46 0.08 0  0.48 0.08 0  0.5 0.08 0  0.52 0.08 0  0.54 0.08 0  0.5600000000000001 0.08 0  0.58 0.08 0  0.6 0.08 0  0.62 0.08 0  0.64 0.08 0  0.66 0.08 0  0.68 0.08 0  0.7 0.08 0  0.72 0.08 0  0.74 0.08 0  0.76 0.08 0  0.78 0.08 0  0.8 0.08 0  0.82 0.08 0  0.84 0.08 0  0.86 0.08 0  0.88 0.08 0  0.9 0.08 0  0.92 0.08 0  0.9399999999999999 0.08 0  0.96 0.08 0  0.98 0.08 0  1 0.08 0  0 0.1 0  0.02 0.1 0  0.04 0.1 0  0.06 0.1 0  0.08 0.1 0  0.1 0.1 0  0.12 0.1 0  0.14 0.1 0  0.16 0.1 0  0.18 0.1 0  0.2 0.1 0  0.22 0.1 0  0.24 0.1 0  0.26 0.1 0  0.28 0.1 0  0.3 0.1 0  0.32 0.1 0  0.34 0.1 0  0.36 0.1 0  0.38 0.1 0  0.4 0.1 0  0.42 0.1 0  0.44 0.1 0  0.46 0.1 0  0.48 0.1 0  0.5 0.1 0  0.52 0.1 0  0.54 0.1 0  0.5600000000000001 0.1 0  0.58 0.1 0  0.6 0.1 0  0.62 0.1 0  0.64 0.1 0  0.66 0.1 0  0.68 0.1 0  0.7 0.1 0  0.72 0.1 0  0.74 0.1 0  0.76 0.1 0  0.78 0.1 0  0.8 0.1 0  0.82 0.1 0  0.84 0.1 0  0.86 0.1 0  0.88 0.1 0  0.9 0.1 0  0.92 0.1 0  0.9399999999999999 0.1 0  0.96 0.1 0  0.98 0.1 0  1 0.1 0  0 0.12 0  0.02 0.12 0  0.04 0.12 0  0.06 0.12 0  0.08 0.12 0  0.1 0.12 0  0.12 0.12 0  0.14 0.12 0  0.16 0.12 0  0.18 0.12 0  0.2 0.12 0  0.22 0.12 0  0.24 0.12 0  0.26 0.12 0  0.28 0.12 0  0.3 0.12 0  0.32 0.12 0  0.34 0.12 0  0.36 0.12 0  0.38 0.12 0  0.4 0.12 0  0.42 0.12 0  0.44 0.12 0  0.46 0.12 0  0.48 0.12 0  0.5 0.12 0  0.52 0.12 0  0.54 0.12 0  0.5600000000000001 0.12 0  0.58 0.12 0  0.6 0.12 0  0.62 0.12 0  0.64 0.12 0  0.66 0.12 0  0.68 0.12 0  0.7 0.12 0  0.72 0.12 0  0.74 0.12 0  0.76 0.12 0  0.78 0.12 0  0.8 0.12 0  0.82 0.12 0  0.84 0.12 0  0.86 0.12 0  0.88 0.12 0  0.9 0.12 0  0.92 0.12 0  0.9399999999999999 0.12 0  0.96 0.12 0  0.98 0.12 0  1 0.12 0  0 0.14 0  0.02 0.14 0  0.04 0.14 0  0.06 0.14 0  0.08 0.14 0  0.1 0.14 0  0.12 0.14 0  0.14 0.14 0  0.16 0.14 0  0.18 0.14 0  0.2 0.14 0  0.22 0.14 0  0.24 0.14 0  0.26 0.14 0  0.28 0.14 0  0.3 0.14 0  0.32 0.14 0  0.34 0.14 0  0.36 0.14 0  0.38 0.14 0  0.4 0.14 0  0.42 0.14 0  0.44 0.14 0  0.46 0.14 0  0.48 0.14 0  0.5 0.14 0  0.52 0.14 0  0.54 0.14 0  0.5600000000000001 0.14 0  0.58 0.14 0  0.6 0.14 0  0.62 0.14 0  0.64 0.14 0  0.66 0.14 0  0.68 0.14 0  0.7 0.14 0  0.72 0.14 0  0.74 0.14 0  0.76 0.14 0  0.78 0.14 0  0.8 0.14 0  0.82 0.14 0  0.84 0.14 0  0.86 0.14 0  0.88 0.14 0  0.9 0.14 0  0.92 0.14 0  0.9399999999999999 0.14 0  0.96 0.14 0  0.98 0.14 0  1 0.14 0  0 0.16 0  0.02 0.16 0  0.04 0.16 0  0.06 0.16 0  0.08 0.16 0  0.1 0.16 0  0.12 0.16 0  0.14 0.16 0  0.16 0.16 0  0.18 0.16 0  0.2 0.16 0  0.22 0.16 0  0.24 0.16 0  0.26 0.16 0  0.28 0.16 0  0.3 0.16 0  0.32 0.16 0  0.34 0.16 0  0.36 0.16 0  0.38 0.16 0  0.4 0.16 0  0.42 0.16 0  0.44 0.16 0  0.46 0.16 0  0.48 0.16 0  0.5 0.16 0  0.52 0.16 0  0.54 0.16 0  0.5600000000000001 0.16 0  0.58 0.16 0  0.6 0.16 0  0.62 0.16 0  0.64 0.16 0  0.66 0.16 0  0.68 0.16 0  0.7 0.16 0  0.72 0.16 0  0.74 0.16 0  0.76 0.16 0  0.78 0.16 0  0.8 0.16 0  0.82 0.16 0  0.84 0.16 0  0.86 0.16 0  0.88 0.16 0  0.9 0.16 0  0.92 0.16 0  0.9399999999999999 0.16 0  0.96 0.16 0  0.98 0.16 0  1 0.16 0  0 0.18 0  0.02 0.18 0  0.04 0.18 0  0.06 0.18 0  0.08 0.18 0  0.1 0.18 0  0.12 0.18 0  0.14 0.18 0  0.16 0.18 0  0.18 0.18 0  0.2 0.18 0  0.22 0.18 0  0.24 0.18 0  0.26 0.18 0  0.28 0.18 0  0.3 0.18 0  0.32 0.18 0  0.34 0.18 0  0.36 0.18 0  0.38 0.18 0  0.4 0.18 0  0.42 0.18 0  0.44 0.18 0  0.46 0.18 0  0.48 0.18 0  0.5 0.18 0  0.52 0.18 0  0.54 0.18 0  0.5600000000000001 0.18 0  0.58 0.18 0  0.6 0.18 0  0.62 0.18 0  0.64 0.18 0  0.66 0.18 0  0.68 0.18 0  0.7 0.18 0  0.72 0.18 0  0.74 0.18 0  0.76 0.18 0  0.78 0.18 0  0.8 0.18 0  0.82 0.18 0  0.84 0.18 0  0.86 0.18 0  0.88 0.18 0  0.9 0.18 0  0.92 0.18 0  0.9399999999999999 0.18 0  0.96 0.18 0  0.98 0.18 0  1 0.18 0  0 0.2 0  0.02 0.2 0  0.04 0.2 0  0.06 0.2 0  0.08 0.2 0  0.1 0.2 0  0.12 0.2 0  0.14 0.2 0  0.16 0.2 0  0.18 0.2 0  0.2 0.2 0  0.22 0.2 0  0.24 0.2 0  0.26 0.2 0  0.28 0.2 0  0.3 0.2 0  0.32 0.2 0  0.34 0.2 0  0.36 0.2 0  0.38 0.2 0  0.4 0.2 0  0.42 0.2 0  0.44 0.2 0  0.46 0.2 0  0.48 0.2 0  0.5 0.2 0  0.52 0.2 0  0.54 0.2 0  0.5600000000000001 0.2 0  0.58 0.2 0  0.6 0.2 0  0.62 0.2 0  0.64 0.2 0  0.66 0.2 0  0.68 0.2 0  0.7 0.2 0  0.72 0.2 0  0.74 0.2 0  0.76 0.2 0  0.78 0.2 0  0.8 0.2 0  0.82 0.2 0  0.84 0.2 0  0.86 0.2 0  0.88 0.2 0  0.9 0.2 0  0.92 0.2 0  0.9399999999999999 0.2 0  0.96 0.2 0  0.98 0.2 0  1 0.2 0  0 0.22 0  0.02 0.22 0  0.04 0.22 0  0.06 0.22 0  0.08 0.22 0  0.1 0.22 0  0.12 0.22 0  0.14 0.22 0  0.16 0.22 0  0.18 0.22 0  0.2 0.22 0  0.22 0.22 0  0.24 0.22 0  0.26 0.22 0  0.28 0.22 0  0.3 0.22 0  0.32 0.22 0  0.34 0.22 0  0.36 0.22 0  0.38 0.22 0  0.4 0.22 0  0.42 0.22 0  0.44 0.22 0  0.46 0.22 0  0.48 0.22 0  0.5 0.22 0  0.52 0.22 0  0.54 0.22 0  0.5600000000000001 0.22 0  0.58 0.22 0  0.6 0.22 0  0.62 0.22 0  0.64 0.22 0  0.66 0.22 0  0.68 0.22 0  0.7 0.22 0  0.72 0.22 0  0.74 0.22 0  0.76 0.22 0  0.78 0.22 0  0.8 0.22 0  0.82 0.22 0  0.84 0.22 0  0.86 0.22 0  0.88 0.22 0  0.9 0.22 0  0.92 0.22 0  0.9399999999999999 0.22 0  0.96 0.22 0  0.98 0.22 0  1 0.22 0  0 0.24 0  0.02 0.24 0  0.04 0.24 0  0.06 0.24 0  0.08 0.24 0  0.1 0.24 0  0.12 0.24 0  0.14 0.24 0  0.16 0.24 0  0.18 0.24 0  0.2 0.24 0  0.22 0.24 0  0.24 0.24 0  0.26 0.24 0  0.28 0.24 0  0.3 0.24 0  0.32 0.24 0  0.34 0.24 0  0.36 0.24 0  0.38 0.24 0  0.4 0.24 0  0.42 0.24 0  0.44 0.24 0  0.46 0.24 0  0.48 0.24 0  0.5 0.24 0  0.52 0.24 0  0.54 0.24 0  0.5600000000000001 0.24 0  0.58 0.24 0  0.6 0.24 0  0.62 0.24 0  0.64 0.24 0  0.66 0.24 0  0.68 0.24 0  0.7 0.24 0  0.72 0.24 0  0.74 0.24 0  0.76 0.24 0  0.78 0.24 0  0.8 0.24 0  0.82 0.24 0  0.84 0.24 0  0.86 0.24 0  0.88 0.24 0  0.9 0.24 0  0.92 0.24 0  0.9399999999999999 0.24 0  0.96 0.24 0  0.98 0.24 0  1 0.24 0  0 0.26 0  0.02 0.26 0  0.04 0.26 0  0.06 0.26 0  0.08 0.26 0  0.1 0.26 0  0.12 0.26 0  0.14 0.26 0  0.16 0.26 0  0.18 0.26 0  0.2 0.26 0  0.22 0.26 0  0.24 0.26 0  0.26 0.26 0  0.28 0.26 0  0.3 0.26 0  0.32 0.26 0  0.34 0.26 0  0.36 0.26 0  0.38 0.26 0  0.4 0.26 0  0.42 0.26 0  0.44 0.26 0  0.46 0.26 0  0.48 0.26 0  0.5 0.26 0  0.52 0.26 0  0.54 0.26 0  0.5600000000000001 0.26 0  0.58 0.26 0  0.6 0.26 0  0.62 0.26 0  0.64 0.26 0  0.66 0.26 0  0.68 0.26 0  0.7 0.26 0  0.72 0.26 0  0.74 0.26 0  0.76 0.26 0  0.78 0.26 0  0.8 0.26 0  0.82 0.26 0  0.84 0.26 0  0.86 0.26 0  0.88 0.26 0  0.9 0.26 0  0.92 0.26 0  0.9399999999999999 0.26 0  0.96 0.26 0  0.98 0.26 0  1 0.26 0  0 0.28 0  0.02 0.28 0  0.04 0.28 0  0.06 0.28 0  0.08 0.28 0  0.1 0.28 0  0.12 0.28 0  0.14 0.28 0  0.16 0.28 0  0.18 0.28 0  0.2 0.28 0  0.22 0.28 0  0.24 0.28 0  0.26 0.28 0  0.28 0.28 0  0.3 0.28 0  0.32 0.28 0  0.34 0.28 0  0.36 0.28 0  0.38 0.28 0  0.4 0.28 0  0.42 0.28 0  0.44 0.28 0  0.46 0.28 0  0.48 0.28 0  0.5 0.28 0  0.52 0.28 0  0.54 0.28 0  0.5600000000000001 0.28 0  0.58 0.28 0  0.6 0.28 0  0.62 0.28 0  0.64 0.28 0  0.66 0.28 0  0.68 0.28 0  0.7 0.28 0  0.72 0.28 0  0.74 0.28 0  0.76 0.28 0  0.78 0.28 0  0.8 0.28 0  0.82 0.28 0  0.84 0.28 0  0.86 0.28
[...]
<PointData  Scalars="q_f"> 
<DataArray  type="Float64"  Name="q_f"  format="ascii">9.9999887428321887e-01  9.9999860553585029e-01  9.9999746395320432e-01  9.9999514029434766e-01  9.9999089198759250e-01  9.9998351949818920e-01  9.9997127223636906e-01  9.9995177904458965e-01  9.9992206628721070e-01  9.9987872847859405e-01  9.9981830334438715e-01  9.9973786450408997e-01  9.9963577872224274e-01  9.9951249214777083e-01  9.9937113701231250e-01  9.9921772182046931e-01  9.9906071522937145e-01  9.9890996721148528e-01  9.9877510746347353e-01  9.9866376275901902e-01  9.9858006515964948e-01  9.9852391536562002e-01  9.9849129527350722e-01  9.9847562683352187e-01  9.9846984206170974e-01  9.9846857840120373e-01  9.9846984206213185e-01  9.9847562683344515e-01  9.9849129527320257e-01  9.9852391536561269e-01  9.9858006515974174e-01  9.9866376275944535e-01  9.9877510746315534e-01  9.9890996721146230e-01  9.9906071522947415e-01  9.9921772182040747e-01  9.9937113701250313e-01  9.9951249214774573e-01  9.9963577872236853e-01  9.9973786450399815e-01  9.9981830334473920e-01  9.9987872847834958e-01  9.9992206628700986e-01  9.9995177904482779e-01  9.9997127223644977e-01  9.9998351949788733e-01  9.9999089198824076e-01  9.9999514029420311e-01  9.9999746395340450e-01  9.9999860553536435e-01  9.9999887428321887e-01  9.9999849257285589e-01  9.9999889422577148e-01  9.9999812520653419e-01  9.9999655469857207e-01  9.9999382091789124e-01  9.9998929272725479e-01  9.9998209536188554e-01  9.9997110888787200e-01  9.9995500674079540e-01  9.9993235799397351e-01  9.9990180440725518e-01  9.9986230600743453e-01  9.9981342566854770e-01  9.9975559861773200e-01  9.9969031518197127e-01  9.9962014361294027e-01  9.9954854125119330e-01  9.9947944728630900e-01  9.9941671077908756e-01  9.9936346699351897e-01  9.9932161253220719e-01  9.9929152730535686e-01  9.9927214148476606e-01  9.9926135680661288e-01  9.9925672797021814e-01  9.9925622460897934e-01  9.9925885827434224e-01  9.9926498868839220e-01  9.9927621361584251e-01  9.9929486998067019e-01  9.9932329016397048e-01  9.9936302855596149e-01  9.9941427673973982e-01  9.9947562240908583e-01  9.9954420088579077e-01  9.9961617562589644e-01  9.9968740109063126e-01  9.9975409030707363e-01  9.9981333310542331e-01  9.9986337390088154e-01  9.9990363429440177e-01  9.9993453038779290e-01  9.9995717113581339e-01  9.9997302873560046e-01  9.9998365203421524e-01  9.9999046205634157e-01  9.9999463704905878e-01  9.9999707039509844e-01  9.9999836916268625e-01  9.9999885060199578e-01  9.9999849257285589e-01  9.9999665786991054e-01  9.9999773807624293e-01  9.9999630798775840e-01  9.9999330708242429e-01  9.9998818064643036e-01  9.9997987633553076e-01  9.9996698599053324e-01  9.9994780206915912e-01  9.9992043496980931e-01  9.9988302352797631e-01  9.9983403396803505e-01  9.9977261119372918e-01  9.9969891687985202e-01  9.9961437011910426e-01  9.9952170824239284e-01  9.9942481334127509e-01  9.9932830069357381e-01  9.9923692662799313e-01  9.9915492796906269e-01  9.9908543522264071e-01  9.9903009587410718e-01  9.9898900156348758e-01  9.9896094308262084e-01  9.9894393740822274e-01  9.9893590136256905e-01  9.9893530527475438e-01  9.9894163947670989e-01  9.9895556939872754e-01  9.9897873278154581e-01  9.9901322578412255e-01  9.9906090817663751e-01  9.9912270773019174e-01  9.9919810554444499e-01  9.9928493651657324e-01  9.9937955576682835e-01  9.9947732649439280e-01  9.9957330485072504e-01  9.9966295558750717e-01  9.9974273861774932e-01  9.9981045571717841e-01  9.9986531946452784e-01  9.9990777851376444e-01  9.9993918329715881e-01  9.9996139385037575e-01  9.9997641856552377e-01  9.9998614035224287e-01  9.9999214836957906e-01  9.9999565869989770e-01  9.9999747701514019e-01  9.9999792595377868e-01  9.9999665786991054e-01  9.9999217774895410e-01  9.9999493425212183e-01  9.9999184041679812e-01  9.9998522660302358e-01  9.9997393245398736e-01  9.9995567241797623e-01  9.9992740047369177e-01  9.9988545470034074e-01  9.9982583255712087e-01  9.9974466455636557e-01  9.9963886766444487e-01  9.9950689054363617e-01  9.9934940145031836e-01  9.9916973642131246e-01  9.9897394131005801e-01  9.9877031375815195e-01  9.9856846810928690e-01  9.9837807645445742e-01  9.9820754101646958e-01  9.9806289147407035e-01  9.9794715975032844e-01  9.9786037466246746e-01  9.9780017116646502e-01  9.9776286346329623e-01  9.9774472271960335e-01  9.9774315191562923e-01  9.9775747238494061e-01  9.9778912593209146e-01  9.9784123536746783e-01  9.9791762350557967e-01  9.9802152741763905e-01  9.9815432521815306e-01  9.9831459541612488e-01  9.9849775083697256e-01  9.9869634894825254e-01  9.9890101248950991e-01  9.9910174386729100e-01  9.9928932647523705e-01  9.9945650249295148e-01  9.9959869770273135e-01  9.9971419979970733e-01  9.9980384045539594e-01  9.9987033857633678e-01  9.9991750687035019e-01  9.9994950568294039e-01  9.9997026617761664e-01  9.9998312679323631e-01  9.9999065157796807e-01  9.9999452742403683e-01  9.9999535797901040e-01  9.9999217774895410e-01  9.9998216744923385e-01  9.9998895213850392e-01  9.9998246833866700e-01  9.9996828929692594e-01  9.9994404282893579e-01  9.9990485807049434e-01  9.9984423945182921e-01  9.9975440548555039e-01  9.9962689528482651e-01  9.9945359175705817e-01  9.9922811445713955e-01  9.9894738601557187e-01  9.9861304912354354e-01  9.9823234927091486e-01  9.9781814389596946e-01  9.9738786437708093e-01  9.9696151183150272e-01  9.9655903828197334e-01  9.9619766100624341e-01  9.9588970766974994e-01  9.9564147131420400e-01  9.9545330596356774e-01  9.9532089544444147e-01  9.9523736368590876e-01  9.9519572078002838e-01  9.9519107867082812e-01  9.9522212602850946e-01  9.9529151420684914e-01  9.9540504972193078e-01  9.9556986556875782e-01  9.9579199025890353e-01  9.9607388954827236e-01  9.9641258129907417e-01  9.9679880805104160e-01  9.9721751351787835e-01  9.9764955724998572e-01  9.9807429337420150e-01  9.9847242449748974e-01  9.9882849120759254e-01  9.9913248890094020e-01  9.9938036865947355e-01  9.9957348230375798e-01  9.9971727351124662e-01  9.9981963227439830e-01  9.9988930856589331e-01  9.9993465961175931e-01  9.9996284001907654e-01  9.9997937724627683e-01  9.9998790607811761e-01  9.9998963613549574e-01  9.9998216744923385e-01  9.9996080256617692e-01  9.9997676141131531e-01  9.9996374783008379e-01  9.9993452925233162e-01  9.9988449976438520e-01  9.9980370391765438e-01  9.9967885881994534e-01  9.9949411699739643e-01  9.9923235063680216e-01  9.9887727163435824e-01  9.9841627527718946e-01  9.9784358810877194e-01  9.9716304990162807e-01  9.9638975171118294e-01  9.9554987091982383e-01  9.9467840953600706e-01  9.9381507632463451e-01  9.9299909221154936e-01  9.9226404844943106e-01  9.9163397024899447e-01  9.9112141998420655e-01  9.9072793391732905e-01  9.9044652039714931e-01  9.9026552381424582e-01  9.9017294483854812e-01  9.9016028263686529e-01  9.9022508907326656e-01  9.9037168065206638e-01  9.9060982415295573e-01  9.9095164286114357e-01  9.9140739291100666e-01  9.9198104302803081e-01  9.9266669120927487e-01  9.9344673599647482e-01  9.9429238126150032e-01  9.9516652925874705e-01  9.9602851498037326e-01  9.9683963490878724e-01  9.9756820942252433e-01  9.9819308373800331e-01  9.9870495708094686e-01  9.9910554797651663e-01  9.9940513400223796e-01  9.9961928988543047e-01  9.9976564595510320e-01  9.9986126399679298e-01  9.9992089236843040e-01  9.9995600600979395e-01  9.9997415329424288e-01  9.9997764774407893e-01  9.9996080256617692e-01  9.9991703387836883e-01  9.9995289990138647e-01  9.9992790780959206e-01  9.9987008291166279e-01  9.9977096091122264e-01  9.9961106635892483e-01  9.9936440936472104e-01  9.9900014515263158e-01  9.9848519313835737e-01  9.9778845316507003e-01  9.9688636303971812e-01  9.9576893400038435e-01  9.9444492664146800e-01  9.9294465631513651e-01  9.9131921021600444e-01  9.8963564590069542e-01  9.8796883622628462e-01  9.8639165579485832e-01  9.8496576100579403e-01  9.8373505583614607e-01  9.8272311188438866e-01  9.8193466658020245e-01  9.8136032225145253e-01  9.8098303380584495e-01  9.8078491142735558e-01  9.8075305749514141e-01  9.8088341803523926e-01  9.8118194296220962e-01  9.8166277419764447e-01  9.8234370847747310e-01  9.8323972511846780e-01  9.8435582804780375e-01  9.8568074611014955e-01  9.8718308503379681e-01  9.8881122216019535e-01  9.9049749965453437e-01  9.9216618029111459e-01  9.9374350711459281e-01  9.9516751774487733e-01  9.9639533539446723e-01  9.9740647375294555e-01  9.9820190137805231e-01  9.9879973602458672e-01  9.9922911227666433e-01  9.9952385801830657e-01  9.9971722766689097e-01  9.9983829168267935e-01  9.9990985137386568e-01  9.9994691065180752e-01  9.9995361103236380e-01  9.9991703387836883e-01  9.9983094280082108e-01  9.9990802104209953e-01  9.9986213428210080e-01  9.9975224432945520e-01  9.9956369350912899e-01  9.9926003316933310e-01  9.9879262892125864e-01  9.9810414465414055e-01  9.9713368852550499e-01  9.9582486595660424e-01  9.9413618467394926e-01  9.9205210065401017e-01  9.8959212620647952e-01  9.8681516216207088e-01  9.8381690393898424e-01  9.8071985140796425e-01  9.7765767343893362e-01  9.7475757321417600e-01  9.7212501064753531e-01  9.6983430086122413e-01  9.6792656460315663e-01  9.6641415948624521e-01  9.6528911337721790e-01  9.6453279357259780e-01  9.6412478635613974e-01  9.6404988051075591e-01  9.6430255571814349e-01  9.6488852694376337e-01  9.6582301666853776e-01  9.6712569735026299e-01  9.6881269703524753e-01  9.7088669202919053e-01  9.7332686670534518e-01  9.7608121204185816e-01  9.7906388588864479e-01  9.8215968840482615e-01  9.8523590765271696e-01  9.8815936266303550e-01  9.9081452395569380e-01  9.9311812629293694e-01  9.9502691600064230e-01  9.9653745186396869e-01  9.9767918690197610e-01  9.9850356971101117e-01  9.9907228194865516e-01  9.9944711703193156e-01  9.9968280943051691e-01  9.9982268745003078e-01  9.9989526830797926e-01  9.9990740488367658e-01  9.9983094280082108e-01  9.9966840626967313e-01  9.9982692056036437e-01  9.9974645468824197e-01  9.9954592890795746e-01  9.9920158259020397e-01  9.9864818230116836e-01  9.9779872217053422e-01  9.9655147421729628e-01  9.9479973294780633e-01  9.9244660332953494e-01  9.8942369342957004e-01  9.8571044178394041e-01  9.8134924394099743e-01  9.7645116483620453e-01  9.7118857983832618e-01  9.6577468524445098e-01  9.6043433774101650e-01  9.5537402489965773e-01  9.5075913134753653e-01  9.4670376844583348e-01  9.4327361442833024e-01  9.4049764903589794e-01  9.3838248503971522e-01  9.3692412825308935e-01  9.3611524089065035e-01  9.3594882765816712e-01  9.3642015603536477e-01  9.3752802591898432e-01  9.3927526104697567e-01  9.4166717173451775e-01  9.4470627640004501e-01  9.4838226165433825e-01  9.5265799915402571e-01  9.5745488184136929e-01  9.6264287818783678e-01  9.6804112647775087e-01  9.7343236005609968e-01  9.7858942367281521e-01  9.8330712720713453e-01  9.8743047214041457e-01  9.9087185534510525e-01  9.9361401845744812e-01  9.9570010600063752e-01  9.9721542852696798e-01  9.9826661999250477e-01  9.9896301698161116e-01  9.9940298847250475e-01  9.9966523715470945e-01  9.9980156735837111e-01  9.9982224883593152e-01  9.9966840626967313e-01  9.9937399041129793e-01  9.9968612899765141e-01  9.9955152817326920e-01  9.9920016119513599e-01  9.9859635685432002e-01  9.9762851186511847e-01  9.9614787636259450e-01  9.9398229580086617e-01  9.9095400981165438e-01  9.8690581110139508e-01  9.8173336066924044e-01  9.7541760986300041e-01  9.6804841671815600e-01  9.5982985261048159e-01  9.5106116133068430e-01  9.4209516257091175e-01  9.3328518000323046e-01  9.2493708352004045e-01  9.1728108888823123e-01  9.1046948909465308e-01  9.0459585849056823e-01  8.9972319516157429e-01  8.9590655965135846e-01  8.9320119962127287e-01  8.9165660089806065e-01  8.9130413048257917e-01  8.9214735726472694e-01  8.9416100859662873e-01  8.9729936760838791e-01  9.0150942799903167e-01  9.0674059677623109e-01  9.1294336982698954e-01  9.2005384116845745e-01  9.2796725162080140e-01  9.3651045984819536e-01  9.4542745092321878e-01  9.5438960663243455e-01  9.6303257521564178e-01  9.7100954139595430e-01  9.7804382280934477e-01  9.8396514968641713e-01  9.8872144510085269e-01  9.9236680303025315e-01  9.9503294021666799e-01  9.9689406614926279e-01  9.9813409559621058e-01  9.9892163140219437e-01  9.9939325650702560e-01  9.9963887433864174e-01  9.9967183488588396e-01  9.9937399041129793e-01  9.9886256775736793e-01  9.9945136937294332e-01  9.9923690804687859e-01  9.9864565808962091e-01  9.9762896361262898e-01  9.9600438723207807e-01  9.9352899551877194e-01  9.8992515321930208e-01  9.8491193597448268e-01  9.7824985050075786e-01  9.6979483186898219e-01  9.5955058174061891e-01  9.4770287158538002e-01  9.3461838933902341e-01  9.2079852200927559e-01  9.0679583797860419e-01  8.9312012620530890e-01  8.8016856266616439e-01  8.6820419278349092e-01  8.5738491805923212e-01  8.4782395935526877e-01  8.3965082579766726e-01  8.3304322093569538e-01  8.2821575114659407e-01  8.2537361326163405e-01  8.2465542355457844e-01  8.2609163940617791e-01  8.2959649260081625e-01  8.3499688398700678e-01  8.4208510259848868e-01  8.5067101749650365e-01  8.6061040718524917e-01  8.7179652951475306e-01  8.8411558376583510e-01  8.9738212248609950e-01  9.1128465765748079e-01  9.2537314421887573e-01  9.3910185508449917e-01  9.5191391364413414e-01  9.6333577782020197e-01  9.7304993639896020e-01  9.8092727776029054e-01  9.8701721603931425e-01  9.9150636303994921e-01  9.9466235085371058e-01  9.9677861133972068e-01  9.9813042526836571e-01  9.9894410964844993e-01  9.9936863032872791e-01  9.9941729600894491e-01  9.9886256775736793e-01  9.9801110555524031e-01  9.9907547396833873e-01  9.9875061137726417e-01  9.9779500693353140e-01  9.9615072218148593e-01  9.9353293812772847e-01  9.8956285099150243e-01  9.8381433140660313e-01  9.7586765878315851e-01  9.6538377429450450e-01  9.5219199694530210e-01  9.3637155884538914e-01  9.1829653542329015e-01  8.9861197947504390e-01  8.7812732978301733e-01  8.5765206029878616e-01  8.3783656479079749e-01  8.1908675437566714e-01  8.0158537407427122e-01  7.8540247443719702e-01  7.7064173070621445e-01  7.5755803575487679e-01  7.4659387912348307e-01  7.3831573125105965e-01  7.3327555758187557e-01  7.3185436082601529e-01  7.3414993322604283e-01  7.3995229313787780e-01  7.4881578688381956e-01  7.6019683524679826e-01  7.7360031143862262e-01  7.8867980567077911e-01  8.0525842799087333e-01  8.2326121525659790e-01  8.4258065528316473e-01  8.6293400080303595e-01  8.8378664001417617e-01  9.0438471361582307e-01  9.2388166456642040e-01  9.4150138928287885e-01  9.5667648508937664e-01  9.6912317976509044e-01  9.7884443906324536e-01  9.8607593560092544e-01  9.9120121635465119e-01  9.9466284644893554e-01  9.9688828003057051e-01  9.9823527537806589e-01  9.9893932635078309e-01  9.9900479603736347e-01  9.9801110555524031e-01  9.9665331686087277e-01  9.9849767217729879e-01  9.9803097714415845e-01  9.9654709072747960e-01  9.9399204966670618e-01  9.8994144846643584e-01  9.8383176553673912e-01  9.7504183287365909e-01  9.6298233710804704e-01  9.4721632783366194e-01  9.2759853517880941e-01  9.0439766859260418e-01  8.7834418679542114e-01  8.5054456007397283e-01  8.2224717468508268e-01  7.9453120021997814e-01  7.6805941671050759e-01  7.4301710472927918e-01  7.1925860930840724e-01  6.9658573211483377e-01  6.7504074477808851e-01  6.5510260610159321e-01  6.3771101630635174e-01  6.2409923522093380e-01  6.1548448686124302e-01  6.1272523051198602e-01  6.1607401867208167e-01  6.2511700065877740e-01  6.3891571052282159e-01  6.5629208230596947e-01  6.7615337662815567e-01  6.9774843169380585e-01  7.2077370701270904e-01  7.4528667829813611e-01  7.7144904943063741e-01  7.9920872166040668e-01  8.2807899953989828e-01  8.5712263345034578e-01  8.8512896383010931e-01  9.1088330068941137e-01  9.3341575549057132e-01  9.5215629424683179e-01  9.6697352938645931e-01  9.7811452785361563e-01  9.8608486801426631e-01  9.9151227231337602e-01  9.9502654659195355e-01  9.9716662002467626e-01  9.9828734580252665e-01  9.9836495535971304e-01  9.9665331686087277e-01  9.9458108722302063e-01  9.9764539501454896e-01  9.9701167661560075e-01  9.9479703848291057e-01  9.9098075207442937e-01  9.8495970590448556e-01  9.7593504792129449e-01  9.6304979675481928e-01  9.4553473948424616e-01  9.2290071027360943e-01  8.9515536485307712e-01  8.6297708276285434e-01  8.2773674482189019e-01  7.9126420916397033e-01  7.5536235239885707e-01  7.2125652495234316e-01  6.8927603985655705e-01  6.5893991701203991e-01  6.2937253395182491e-01  5.9985159305606006e-01  5.7029369687415499e-01  5.4152741000333249e-01  5.1528204973363090e-01  4.9387720744387914e-01  4.7965689242427717e-01  4.7434183344681524e-01  4.7854968653552649e-01  4.9164625634635051e-01  5.1194264694686475e-01  5.3717239462180677e-01  5.6512845430103620e-01  5.9426482597644126e-01  6.2402618895915529e-01  6.5475932312280927e-01  6.8724383229188946e-01  7.2205047347926365e-01  7.5903725696341107e-01  7.9721344422158080e-01  8.3496910622590170e-01  8.7049707741726623e-01  9.0221508896603775e-01  9.2906016630797017e-01  9.5060555657234191e-01  9.6701411642060386e-01  9.7888197614555117e-01  9.8703940424094949e-01  9.9236397574377255e-01  9.9562820462194723e-01  9.9734116434287834e-01  9.9741561913628474e-01  9.9458108722302063e-01  9.9155721549437148e-01  9.9643974312629968e-01  9.9563025349815204e-01  9.9245192526909876e-01  9.8696987395896363e-01  9.7836766053150748e-01  9.6556808782922754e-01  9.4745845936097872e-01  9.2312403730248549e-01  8.9215001395025095e-01  8.5494960378223428e-01  8.1298838736666901e-01  7.6870350032969315e-01  7.2495537112945352e-01  6.8408972483573194e-01  6.4706931509795140e-01  6.1324962065882616e-01  5.8087181759684747e-01  5.4787766427021711e-01  5.1273993682432772e-01  4.7512349618096977e-01  4.3621803044741886e-01  3.9873176707099051e-01  3.6650678203186654e-01  3.4364874533465756e-01  3.3341249711294724e-01  3.3732582086912605e-01  3.5477610709824325e-01  3.8308628997656180e-01  4.1817291845634785e-01  4.5577263066510343e-01  4.9282725647936859e-01  5.2829730401836061e-01  5.6306384665053855e-01  5.9909209264387520e-01  6.3823907659283674e-01  6.8124904186188306e-01  7.2738832773674189e-01  7.7471421643419169e-01  8.2069093974103013e-01  8.6286106995108358e-01  8.9936723471118840e-01  9.2922112615285124e-01  9.5231382453908087e-01  9.6923349659137858e-01  9.8098946803072695e-01  9.8873259361595089e-01  9.9351458077392962e-01  9.9602972550214453e-01  9.9606940244046671e-01  9.9155721549437148e-01  9.8734330807657211e-01  9.9480538326054135e-01  9.9383972021195111e-01  9.8945078871268022e-01  9.8187207241585783e-01  9.7005238267069693e-01  9.5261367067254299e-01  9.2820833709165473e-01  8.9588500106485736e-01  8.5555183839627913e-01  8.0845000644402210e-01  7.5738817196247599e-01  7.0639488600701295e-01  6.5958043063491256e-01  6.1949447900028554e-01  5.8604797424514488e-01  5.5689608798904788e-01  5.2858801444966974e-01  4.9756096670209571e-01  4.6103602062168053e-01  4.1787342139444422e-01  3.6913732866701471e-01  3.1837810509483722e-01  2.7142522597105501e-01  2.3516527389521052e-01  2.1567508318754844e-01  2.1663163854888437e-01  2.3813845042261844e-01  2.7617436146669988e-01  3.2351639064860610e-01  3.7224990280199438e-01  4.1673088373060030e-01  4.5515977387363277e-01  4.8929015990485369e-01  5.2305962917322646e-01  5.6055122416922998e-01  6.0422128917167683e-01  6.5419084208091216e-01  7.0847270175182386e-01  7.6376216717788614e-01  8.1643633018718886e-01  8.6343486383254919e-01  9.0280485435895796e-01  9.3384901396931463e-01  9.5694809439424500e-01  9.7319916855029454e-01  9.8401252719594423e-01  9.9074488394037330e-01  9.9429492503030725e-01  9.9424679761523305e-01  9.8734330807657211e-01  9.8174403119888298e-01  9.9268478509195879e-01  9.9162168321726296e-01  9.8578564766354393e-01  9.7569413445658160e-01  9.6006241224440014e-01  9.3722359883505002e-01  9.0567627188231670e-01  8.6464026481563927e-01  8.1474000344502728e-01  7.5863553759890223e-01  7.0114883481880352e-01  6.4836791863143861e-01  6.0555179831562500e-0