<?xml version="1.0"?>
<VTKFile type="UnstructuredGrid"  version="0.1"  >
<UnstructuredGrid>
<Piece  NumberOfPoints="2601" NumberOfCells="5000">
<Points>
<DataArray  type="Float64"  NumberOfComponents="3"  format="ascii">0 0 0  0.02 0 0  0.04 0 0  0.06 0 0  0.08 0 0  0.1 0 0  0.12 0 0  0.14 0 0  0.16 0 0  0.18 0 0  0.2 0 0  0.22 0 0  0.24 0 0  0.26 0 0  0.28 0 0  0.3 0 0  0.32 0 0  0.34 0 0  0.36 0 0  0.38 0 0  0.4 0 0  0.42 0 0  0.44 0 0  0.46 0 0  0.48 0 0  0.5 0 0  0.52 0 0  0.54 0 0  0.5600000000000001 0 0  0.58 0 0  0.6 0 0  0.62 0 0  0.64 0 0  0.66 0 0  0.68 0 0  0.7 0 0  0.72 0 0  0.74 0 0  0.76 0 0  0.78 0 0  0.8 0 0  0.82 0 0  0.84 0 0  0.86 0 0  0.88 0 0  0.9 0 0  0.92 0 0  0.9399999999999999 0 0  0.96 0 0  0.98 0 0  1 0 0  0 0.02 0  0.02 0.02 0  0.04 0.02 0  0.06 0.02 0  0.08 0.02 0  0.1 0.02 0  0.12 0.02 0  0.14 0.02 0  0.16 0.02 0  0.18 0.02 0  0.2 0.02 0  0.22 0.02 0  0.24 0.02 0  0.26 0.02 0  0.28 0.02 0  0.3 0.02 0  0.32 0.02 0  0.34 0.02 0  0.36 0.02 0  0.38 0.02 0  0.4 0.02 0  0.42 0.02 0  0.44 0.02 0  0.46 0.02 0  0.48 0.02 0  0.5 0.02 0  0.52 0.02 0  0.54 0.02 0  0.5600000000000001 0.02 0  0.58 0.02 0  0.6 0.02 0  0.62 0.02 0  0.64 0.02 0  0.66 0.02 0  0.68 0.02 0  0.7 0.02 0  0.72 0.02 0  0.74 0.02 0  0.76 0.02 0  0.78 0.02 0  0.8 0.02 0  0.82 0.02 0  0.84 0.02 0  0.86 0.02 0  0.88 0.02 0  0.9 0.02 0  0.92 0.02 0  0.9399999999999999 0.02 0  0.96 0.02 0  0.98 0.02 0  1 0.02 0  0 0.04 0  0.02 0.04 0  0.04 0.04 0  0.06 0.04 0  0.08 0.04 0  0.1 0.04 0  0.12 0.04 0  0.14 0.04 0  0.16 0.04 0  0.18 0.04 0  0.2 0.04 0  0.22 0.04 0  0.24 0.04 0  0.26 0.04 0  0.28 0.04 0  0.3 0.04 0  0.32 0.04 0  0.34 0.04 0  0.36 0.04 0  0.38 0.04 0  0.4 0.04 0  0.42 0.04 0  0.44 0.04 0  0.46 0.04 0  0.48 0.04 0  0.5 0.04 0  0.52 0.04 0  0.54 0.04 0  0.5600000000000001 0.04 0  0.58 0.04 0  0.6 0.04 0  0.62 0.04 0  0.64 0.04 0  0.66 0.04 0  0.68 0.04 0  0.7 0.04 0  0.72 0.04 0  0.74 0.04 0  0.76 0.04 0  0.78 0.04 0  0.8 0.04 0  0.82 0.04 0  0.84 0.04 0  0.86 0.04 0  0.88 0.04 0  0.9 0.04 0  0.92 0.04 0  0.9399999999999999 0.04 0  0.96 0.04 0  0.98 0.04 0  1 0.04 0  0 0.06 0  0.02 0.06 0  0.04 0.06 0  0.06 0.06 0  0.08 0.06 0  0.1 0.06 0  0.12 0.06 0  0.14 0.06 0  0.16 0.06 0  0.18 0.06 0  0.2 0.06 0  0.22 0.06 0  0.24 0.06 0  0.26 0.06 0  0.28 0.06 0  0.3 0.06 0  0.32 0.06 0  0.34 0.06 0  0.36 0.06 0  0.38 0.06 0  0.4 0.06 0  0.42 0.06 0  0.44 0.06 0  0.46 0.06 0  0.48 0.06 0  0.5 0.06 0  0.52 0.06 0  0.54 0.06 0  0.5600000000000001 0.06 0  0.58 0.06 0  0.6 0.06 0  0.62 0.06 0  0.64 0.06 0  0.66 0.06 0  0.68 0.06 0  0.7 0.06 0  0.72 0.06 0  0.74 0.06 0  0.76 0.06 0  0.78 0.06 0  0.8 0.06 0  0.82 0.06 0  0.84 0.06 0  0.86 0.06 0  0.88 0.06 0  0.9 0.06 0  0.92 0.06 0  0.9399999999999999 0.06 0  0.96 0.06 0  0.98 0.06 0  1 0.06 0  0 0.08 0  0.02 0.08 0  0.04 0.08 0  0.06 0.08 0  0.08 0.08 0  0.1 0.08 0  0.12 0.08 0  0.14 0.08 0  0.16 0.08 0  0.18 0.08 0  0.2 0.08 0  0.22 0.08 0  0.24 0.08 0  0.26 0.08 0  0.28 0.08 0  0.3 0.08 0  0.32 0.08 0  0.34 0.08 0  0.36 0.08 0  0.38 0.08 0  0.4 0.08 0  0.42 0.08 0  0.44 0.08 0  0.46 0.08 0  0.48 0.08 0  0.5 0.08 0  0.52 0.08 0  0.54 0.08 0  0.5600000000000001 0.08 0  0.58 0.08 0  0.6 0.08 0  0.62 0.08 0  0.64 0.08 0  0.66 0.08 0  0.68 0.08 0  0.7 0.08 0  0.72 0.08 0  0.74 0.08 0  0.76 0.08 0  0.78 0.08 0  0.8 0.08 0  0.82 0.08 0  0.84 0.08 0  0.86 0.08 0  0.88 0.08 0  0.9 0.08 0  0.92 0.08 0  0.9399999999999999 0.08 0  0.96 0.08 0  0.98 0.08 0  1 0.08 0  0 0.1 0  0.02 0.1 0  0.04 0.1 0  0.06 0.1 0  0.08 0.1 0  0.1 0.1 0  0.12 0.1 0  0.14 0.1 0  0.16 0.1 0  0.18 0.1 0  0.2 0.1 0  0.22 0.1 0  0.24 0.1 0  0.26 0.1 0  0.28 0.1 0  0.3 0.1 0  0.32 0.1 0  0.34 0.1 0  0.36 0.1 0  0.38 0.1 0  0.4 0.1 0  0.42 0.1 0  0.44 0.1 0  0.46 0.1 0  0.48 0.1 0  0.5 0.1 0  0.52 0.1 0  0.54 0.1 0  0.5600000000000001 0.1 0  0.58 0.1 0  0.6 0.1 0  0.62 0.1 0  0.64 0.1 0  0.66 0.1 0  0.68 0.1 0  0.7 0.1 0  0.72 0.1 0  0.74 0.1 0  0.76 0.1 0  0.78 0.1 0  0.8 0.1 0  0.82 0.1 0  0.84 0.1 0  0.86 0.1 0  0.88 0.1 0  0.9 0.1 0  0.92 0.1 0  0.9399999999999999 0.1 0  0.96 0.1 0  0.98 0.1 0  1 0.1 0  0 0.12 0  0.02 0.12 0  0.04 0.12 0  0.06 0.12 0  0.08 0.12 0  0.1 0.12 0  0.12 0.12 0  0.14 0.12 0  0.16 0.12 0  0.18 0.12 0  0.2 0.12 0  0.22 0.12 0  0.24 0.12 0  0.26 0.12 0  0.28 0.12 0  0.3 0.12 0  0.32 0.12 0  0.34 0.12 0  0.36 0.12 0  0.38 0.12 0  0.4 0.12 0  0.42 0.12 0  0.44 0.12 0  0.46 0.12 0  0.48 0.12 0  0.5 0.12 0  0.52 0.12 0  0.54 0.12 0  0.5600000000000001 0.12 0  0.58 0.12 0  0.6 0.12 0  0.62 0.12 0  0.64 0.12 0  0.66 0.12 0  0.68 0.12 0  0.7 0.12 0  0.72 0.12 0  0.74 0.12 0  0.76 0.12 0  0.78 0.12 0  0.8 0.12 0  0.82 0.12 0  0.84 0.12 0  0.86 0.12 0  0.88 0.12 0  0.9 0.12 0  0.92 0.12 0  0.9399999999999999 0.12 0  0.96 0.12 0  0.98 0.12 0  1 0.12 0  0 0.14 0  0.02 0.14 0  0.04 0.14 0  0.06 0.14 0  0.08 0.14 0  0.1 0.14 0  0.12 0.14 0  0.14 0.14 0  0.16 0.14 0  0.18 0.14 0  0.2 0.14 0  0.22 0.14 0  0.24 0.14 0  0.26 0.14 0  0.28 0.14 0  0.3 0.14 0  0.32 0.14 0  0.34 0.14 0  0.36 0.14 0  0.38 0.14 0  0.4 0.14 0  0.42 0.14 0  0.44 0.14 0  0.46 0.14 0  0.48 0.14 0  0.5 0.14 0  0.52 0.14 0  0.54 0.14 0  0.5600000000000001 0.14 0  0.58 0.14 0  0.6 0.14 0  0.62 0.14 0  0.64 0.14 0  0.66 0.14 0  0.68 0.14 0  0.7 0.14 0  0.72 0.14 0  0.74 0.14 0  0.76 0.14 0  0.78 0.14 0  0.8 0.14 0  0.82 0.14 0  0.84 0.14 0  0.86 0.14 0  0.88 0.14 0  0.9 0.14 0  0.92 0.14 0  0.9399999999999999 0.14 0  0.96 0.14 0  0.98 0.14 0  1 0.14 0  0 0.16 0  0.02 0.16 0  0.04 0.16 0  0.06 0.16 0  0.08 0.16 0  0.1 0.16 0  0.12 0.16 0  0.14 0.16 0  0.16 0.16 0  0.18 0.16 0  0.2 0.16 0  0.22 0.16 0  0.24 0.16 0  0.26 0.16 0  0.28 0.16 0  0.3 0.16 0  0.32 0.16 0  0.34 0.16 0  0.36 0.16 0  0.38 0.16 0  0.4 0.16 0  0.42 0.16 0  0.44 0.16 0  0.46 0.16 0  0.48 0.16 0  0.5 0.16 0  0.52 0.16 0  0.54 0.16 0  0.5600000000000001 0.16 0  0.58 0.16 0  0.6 0.16 0  0.62 0.16 0  0.64 0.16 0  0.66 0.16 0  0.68 0.16 0  0.7 0.16 0  0.72 0.16 0  0.74 0.16 0  0.76 0.16 0  0.78 0.16 0  0.8 0.16 0  0.82 0.16 0  0.84 0.16 0  0.86 0.16 0  0.88 0.16 0  0.9 0.16 0  0.92 0.16 0  0.9399999999999999 0.16 0  0.96 0.16 0  0.98 0.16 0  1 0.16 0  0 0.18 0  0.02 0.18 0  0.04 0.18 0  0.06 0.18 0  0.08 0.18 0  0.1 0.18 0  0.12 0.18 0  0.14 0.18 0  0.16 0.18 0  0.18 0.18 0  0.2 0.18 0  0.22 0.18 0  0.24 0.18 0  0.26 0.18 0  0.28 0.18 0  0.3 0.18 0  0.32 0.18 0  0.34 0.18 0  0.36 0.18 0  0.38 0.18 0  0.4 0.18 0  0.42 0.18 0  0.44 0.18 0  0.46 0.18 0  0.48 0.18 0  0.5 0.18 0  0.52 0.18 0  0.54 0.18 0  0.5600000000000001 0.18 0  0.58 0.18 0  0.6 0.18 0  0.62 0.18 0  0.64 0.18 0  0.66 0.18 0  0.68 0.18 0  0.7 0.18 0  0.72 0.18 0  0.74 0.18 0  0.76 0.18 0  0.78 0.18 0  0.8 0.18 0  0.82 0.18 0  0.84 0.18 0  0.86 0.18 0  0.88 0.18 0  0.9 0.18 0  0.92 0.18 0  0.9399999999999999 0.18 0  0.96 0.18 0  0.98 0.18 0  1 0.18 0  0 0.2 0  0.02 0.2 0  0.04 0.2 0  0.06 0.2 0  0.08 0.2 0  0.1 0.2 0  0.12 0.2 0  0.14 0.2 0  0.16 0.2 0  0.18 0.2 0  0.2 0.2 0  0.22 0.2 0  0.24 0.2 0  0.26 0.2 0  0.28 0.2 0  0.3 0.2 0  0.32 0.2 0  0.34 0.2 0  0.36 0.2 0  0.38 0.2 0  0.4 0.2 0  0.42 0.2 0  0.44 0.2 0  0.46 0.2 0  0.48 0.2 0  0.5 0.2 0  0.52 0.2 0  0.54 0.2 0  0.5600000000000001 0.2 0  0.58 0.2 0  0.6 0.2 0  0.62 0.2 0  0.64 0.2 0  0.66 0.2 0  0.68 0.2 0  0.7 0.2 0  0.72 0.2 0  0.74 0.2 0  0.76 0.2 0  0.78 0.2 0  0.8 0.2 0  0.82 0.2 0  0.84 0.2 0  0.86 0.2 0  0.88 0.2 0  0.9 0.2 0  0.92 0.2 0  0.9399999999999999 0.2 0  0.96 0.2 0  0.98 0.2 0  1 0.2 0  0 0.22 0  0.02 0.22 0  0.04 0.22 0  0.06 0.22 0  0.08 0.22 0  0.1 0.22 0  0.12 0.22 0  0.14 0.22 0  0.16 0.22 0  0.18 0.22 0  0.2 0.22 0  0.22 0.22 0  0.24 0.22 0  0.26 0.22 0  0.28 0.22 0  0.3 0.22 0  0.32 0.22 0  0.34 0.22 0  0.36 0.22 0  0.38 0.22 0  0.4 0.22 0  0.42 0.22 0  0.44 0.22 0  0.46 0.22 0  0.48 0.22 0  0.5 0.22 0  0.52 0.22 0  0.54 0.22 0  0.5600000000000001 0.22 0  0.58 0.22 0  0.6 0.22 0  0.62 0.22 0  0.64 0.22 0  0.66 0.22 0  0.68 0.22 0  0.7 0.22 0  0.72 0.22 0  0.74 0.22 0  0.76 0.22 0  0.78 0.22 0  0.8 0.22 0  0.82 0.22 0  0.84 0.22 0  0.86 0.22 0  0.88 0.22 0  0.9 0.22 0  0.92 0.22 0  0.9399999999999999 0.22 0  0.96 0.22 0  0.98 0.22 0  1 0.22 0  0 0.24 0  0.02 0.24 0  0.04 0.24 0  0.06 0.24 0  0.08 0.24 0  0.1 0.24 0  0.12 0.24 0  0.14 0.24 0  0.16 0.24 0  0.18 0.24 0  0.2 0.24 0  0.22 0.24 0  0.24 0.24 0  0.26 0.24 0  0.28 0.24 0  0.3 0.24 0  0.32 0.24 0  0.34 0.24 0  0.36 0.24 0  0.38 0.24 0  0.4 0.24 0  0.42 0.24 0  0.44 0.24 0  0.46 0.24 0  0.48 0.24 0  0.5 0.24 0  0.52 0.24 0  0.54 0.24 0  0.5600000000000001 0.24 0  0.58 0.24 0  0.6 0.24 0  0.62 0.24 0  0.64 0.24 0  0.66 0.24 0  0.68 0.24 0  0.7 0.24 0  0.72 0.24 0  0.74 0.24 0  0.76 0.24 0  0.78 0.24 0  0.8 0.24 0  0.82 0.24 0  0.84 0.24 0  0.86 0.24 0  0.88 0.24 0  0.9 0.24 0  0.92 0.24 0  0.9399999999999999 0.24 0  0.96 0.24 0  0.98 0.24 0  1 0.24 0  0 0.26 0  0.02 0.26 0  0.04 0.26 0  0.06 0.26 0  0.08 0.26 0  0.1 0.26 0  0.12 0.26 0  0.14 0.26 0  0.16 0.26 0  0.18 0.26 0  0.2 0.26 0  0.22 0.26 0  0.24 0.26 0  0.26 0.26 0  0.28 0.26 0  0.3 0.26 0  0.32 0.26 0  0.34 0.26 0  0.36 0.26 0  0.38 0.26 0  0.4 0.26 0  0.42 0.26 0  0.44 0.26 0  0.46 0.26 0  0.48 0.26 0  0.5 0.26 0  0.52 0.26 0  0.54 0.26 0  0.5600000000000001 0.26 0  0.58 0.26 0  0.6 0.26 0  0.62 0.26 0  0.64 0.26 0  0.66 0.26 0  0.68 0.26 0  0.7 0.26 0  0.72 0.26 0  0.74 0.26 0  0.76 0.26 0  0.78 0.26 0  0.8 0.26 0  0.82 0.26 0  0.84 0.26 0  0.86 0.26 0  0.88 0.26 0  0.9 0.26 0  0.92 0.26 0  0.9399999999999999 0.26 0  0.96 0.26 0  0.98 0.26 0  1 0.26 0  0 0.28 0  0.02 0.28 0  0.04 0.28 0  0.06 0.28 0  0.08 0.28 0  0.1 0.28 0  0.12 0.28 0  0.14 0.28 0  0.16 0.28 0  0.18 0.28 0  0.2 0.28 0  0.22 0.28 0  0.24 0.28 0  0.26 0.28 0  0.28 0.28 0  0.3 0.28 0  0.32 0.28 0  0.34 0.28 0  0.36 0.28 0  0.38 0.28 0  0.4 0.28 0  0.42 0.28 0  0.44 0.28 0  0.46 0.28 0  0.48 0.28 0  0.5 0.28 0  0.52 0.28 0  0.54 0.28 0  0.5600000000000001 0.28 0  0.58 0.28 0  0.6 0.28 0  0.62 0.28 0  0.64 0.28 0  0.66 0.28 0  0.68 0.28 0  0.7 0.28 0  0.72 0.28 0  0.74 0.28 0  0.76 0.28 0  0.78 0.28 0  0.8 0.28 0  0.82 0.28 0  0.84 0.28 0  0.86 0.28
[...]
<PointData  Scalars="q_f"> 
<DataArray  type="Float64"  Name="q_f"  format="ascii">9.9999887424280831e-01  9.9999860547977593e-01  9.9999746384135790e-01  9.9999514005458057e-01  9.9999089148644926e-01  9.9998351849155098e-01  9.9997127030593924e-01  9.9995177551040737e-01  9.9992206009773976e-01  9.9987871807001183e-01  9.9981828644763848e-01  9.9973783788272330e-01  9.9963573786133275e-01  9.9951243100011822e-01  9.9937104802999488e-01  9.9921759654291742e-01  9.9906054557951152e-01  9.9890974730181925e-01  9.9877483532776634e-01  9.9866344124430151e-01  9.9857970146508879e-01  9.9852351933727168e-01  9.9849087716909590e-01  9.9847519547757380e-01  9.9846940403911466e-01  9.9846813839976278e-01  9.9846940403930762e-01  9.9847519547732166e-01  9.9849087716888207e-01  9.9852351933740979e-01  9.9857970146494568e-01  9.9866344124449491e-01  9.9877483532769706e-01  9.9890974730159976e-01  9.9906054557965285e-01  9.9921759654297582e-01  9.9937104803012711e-01  9.9951243100014786e-01  9.9963573786120874e-01  9.9973783788268211e-01  9.9981828644779891e-01  9.9987871807016548e-01  9.9992206009776441e-01  9.9995177551047265e-01  9.9997127030591437e-01  9.9998351849152722e-01  9.9999089148664821e-01  9.9999514005466072e-01  9.9999746384145616e-01  9.9999860547959851e-01  9.9999887424280831e-01  9.9999849250916850e-01  9.9999889408628839e-01  9.9999812489993123e-01  9.9999655404799437e-01  9.9999381961420852e-01  9.9998929028579164e-01  9.9998209112928349e-01  9.9997110219037422e-01  9.9995499727869119e-01  9.9993234658871089e-01  9.9990179407796653e-01  9.9986230316177538e-01  9.9981344093473623e-01  9.9975564670694306e-01  9.9969041331817987e-01  9.9962030856270068e-01  9.9954878567836514e-01  9.9947977667782939e-01  9.9941712218778611e-01  9.9936395019607016e-01  9.9932215322915707e-01  9.9929211112786298e-01  9.9927275728542164e-01  9.9926199804375493e-01  9.9925739176782624e-01  9.9925690894373276e-01  9.9925955844834069e-01  9.9926569452686254e-01  9.9927690862019325e-01  9.9929553291885986e-01  9.9932389863009541e-01  9.9936356325272691e-01  9.9941472503712270e-01  9.9947598012949723e-01  9.9954447203881291e-01  9.9961637052195995e-01  9.9968753365486462e-01  9.9975417541376133e-01  9.9981338450343660e-01  9.9986340296869636e-01  9.9990364959428468e-01  9.9993453781641306e-01  9.9995717441667986e-01  9.9997303002005333e-01  9.9998365245502019e-01  9.9999046215079812e-01  9.9999463704331792e-01  9.9999707036919339e-01  9.9999836913622320e-01  9.9999885056895588e-01  9.9999849250916850e-01  9.9999665769433721e-01  9.9999773765268285e-01  9.9999630703078979e-01  9.9999330502525907e-01  9.9998817648256977e-01  9.9997986846560061e-01  9.9996697222888431e-01  9.9994778007994167e-01  9.9992040345483635e-01  9.9988298447790702e-01  9.9983399584166743e-01  9.9977259229055682e-01  9.9969894743968835e-01  9.9961449133056457e-01  9.9952196697673201e-01  9.9942525306378260e-01  9.9932895102850849e-01  9.9923779543865265e-01  9.9915599942735933e-01  9.9908667512236804e-01  9.9903146238928664e-01  9.9899045732177094e-01  9.9896246390653587e-01  9.9894551447964208e-01  9.9893753614738090e-01  9.9893699931634450e-01  9.9894338316927178e-01  9.9895733438446510e-01  9.9898047131948486e-01  9.9901487764784369e-01  9.9906241257029060e-01  9.9912401578948662e-01  9.9919918915021178e-01  9.9928579110565419e-01  9.9938019738625228e-01  9.9947778521339481e-01  9.9957361719673632e-01  9.9966315809772266e-01  9.9974286353751285e-01  9.9981052892485978e-01  9.9986536013878868e-01  9.9990779988231671e-01  9.9993919388045627e-01  9.9996139877516133e-01  9.9997642071105064e-01  9.9998614122333418e-01  9.9999214869546171e-01  9.9999565880535235e-01  9.9999747702635988e-01  9.9999792589707004e-01  9.9999665769433721e-01  9.9999217724566480e-01  9.9999493299524178e-01  9.9999183753235799e-01  9.9998522034214732e-01  9.9997391968694738e-01  9.9995564817180571e-01  9.9992735800082566e-01  9.9988538690620410e-01  9.9982573592778323e-01  9.9974454630972287e-01  9.9963875566720561e-01  9.9950684337322415e-01  9.9934951371926806e-01  9.9917013386880493e-01  9.9897476255502338e-01  9.9877168108365144e-01  9.9857045607978756e-01  9.9838069066139568e-01  9.9821071692245023e-01  9.9806651542704106e-01  9.9795110464167947e-01  9.9786453641108552e-01  9.9780449211221889e-01  9.9776733415270247e-01  9.9774936178736817e-01  9.9774797184431818e-01  9.9776244458625774e-01  9.9779415966217011e-01  9.9784618016060989e-01  9.9792229524408416e-01  9.9802574800998978e-01  9.9815796056440453e-01  9.9831757844074209e-01  9.9850008434591520e-01  9.9869809173830315e-01  9.9890225717577030e-01  9.9910259491864117e-01  9.9928988374147387e-01  9.9945685166552678e-01  9.9959890667037776e-01  9.9971431892127405e-01  9.9980390492483973e-01  9.9987037158391112e-01  9.9991752280447788e-01  9.9994951291507617e-01  9.9997026925678067e-01  9.9998312801862421e-01  9.9999065202249449e-01  9.9999452752478291e-01  9.9999535785111959e-01  9.9999217724566480e-01  9.9998216607674562e-01  9.9998894859286969e-01  9.9998246009210878e-01  9.9996827127001942e-01  9.9994400595566579e-01  9.9990478809280769e-01  9.9984411750472235e-01  9.9975421317432112e-01  9.9962662759030518e-01  9.9945327989992283e-01  9.9922785668973735e-01  9.9894737744238638e-01  9.9861359514179160e-01  9.9823384611023624e-01  9.9782101832964964e-01  9.9739248225079158e-01  9.9696808404274906e-01  9.9656756169325045e-01  9.9620792238543088e-01  9.9590135332584373e-01  9.9565411648012248e-01  9.9546664142902397e-01  9.9533475158422857e-01  9.9525170975616262e-01  9.9521060100369374e-01  9.9520650899724539e-01  9.9523799140478408e-01  9.9530750963780390e-01  9.9542069394578347e-01  9.9558458625376600e-01  9.9580524787275160e-01  9.9608529102014987e-01  9.9642194353025704e-01  9.9680615830837471e-01  9.9722304132053641e-01  9.9765354599485212e-01  9.9807705693151638e-01  9.9847426197455258e-01  9.9882966156054154e-01  9.9913320097613334e-01  9.9938078107655692e-01  9.9957370882950303e-01  9.9971739107294477e-01  9.9981968973226965e-01  9.9988933494307142e-01  9.9993467097091437e-01  9.9996284461156359e-01  9.9997937897173883e-01  9.9998790658374059e-01  9.9998963590315504e-01  9.9998216607674562e-01  9.9996079903198343e-01  9.9997675196733460e-01  9.9996372556968993e-01  9.9993448037668253e-01  9.9988439980906985e-01  9.9980351511157528e-01  9.9967853327421485e-01  9.9949361376928514e-01  9.9923167613765485e-01  9.9887654851371033e-01  9.9841583162893000e-01  9.9784403851876335e-01  9.9716532248149337e-01  9.9639501610692605e-01  9.9555935159036690e-01  9.9469312055708992e-01  9.9383556423811159e-01  9.9302529063969713e-01  9.9229531404938554e-01  9.9166929489442768e-01  9.9115973719866346e-01  9.9076840034461700e-01  9.9048867032353460e-01  9.9030924791367525e-01  9.9021830521059373e-01  9.9020723020334867e-01  9.9027318973118628e-01  9.9041996736192528e-01  9.9065685365862766e-01  9.9099575098355663e-01  9.9144705053163118e-01  9.9201517006926654e-01  9.9269481669148296e-01  9.9346897615797347e-01  9.9430928908998595e-01  9.9517890203787474e-01  9.9603722802669714e-01  9.9684552898914258e-01  9.9757202785877963e-01  9.9819544388040027e-01  9.9870634327619912e-01  9.9910631859215471e-01  9.9940553803873877e-01  9.9961948905645970e-01  9.9976573805304736e-01  9.9986130392022410e-01  9.9992090864912697e-01  9.9995601228929099e-01  9.9997415542408585e-01  9.9997764756512575e-01  9.9996079903198343e-01  9.9991702529194404e-01  9.9995287628920992e-01  9.9992785137183027e-01  9.9986995869611761e-01  9.9977070779108790e-01  9.9961059253769291e-01  9.9936360599262009e-01  9.9899894028305336e-01  9.9848367081252243e-01  9.9778704738789992e-01  9.9688609621496049e-01  9.9577161300849792e-01  9.9445316965306896e-01  9.9296164197651993e-01  9.9134813659390209e-01  9.8967902763343596e-01  9.8802788116461671e-01  9.8646597484178922e-01  9.8505355107764148e-01  9.8383369892371753e-01  9.8282995280035823e-01  9.8204766778857255e-01  9.8147836933182131e-01  9.8110581151268528e-01  9.8091240781567635e-01  9.8088486235755223e-01  9.8101806961204285e-01  9.8131660704382706e-01  9.8179344802330015e-01  9.8246592502381347e-01  9.8334949276621941e-01  9.8445042444221442e-01  9.8575907645515104e-01  9.8724555539737358e-01  9.8885930330763727e-01  9.9053323036437690e-01  9.9219177885049437e-01  9.9376113026625457e-01  9.9517912658639773e-01  9.9640261908610783e-01  9.9741080773210800e-01  9.9820433754520865e-01  9.9880102531696535e-01  9.9922975289676452e-01  9.9952415626594293e-01  9.9971735775482040e-01  9.9983834515153025e-01  9.9990987246175389e-01  9.9994691854237527e-01  9.9995361201346289e-01  9.9991702529194404e-01  9.9983092305594001e-01  9.9990796594829523e-01  9.9986200055646557e-01  9.9975194990939498e-01  9.9956309786642794e-01  9.9925893401545796e-01  9.9879081173609763e-01  9.9810154265997142e-01  9.9713071234577988e-01  9.9582291297688941e-01  9.9413822239701699e-01  9.9206307280440209e-01  9.8961885643600933e-01  9.8686553702454871e-01  9.8389841395250277e-01  9.8083791484394656e-01  9.7781435464901068e-01  9.7495121454559130e-01  9.7235095540108685e-01  9.7008643824278051e-01  9.6819908215484252e-01  9.6670283403696222e-01  9.6559172731797382e-01  9.6484862594476495e-01  9.6445338972948158e-01  9.6438951907483461e-01  9.6464883637975474e-01  9.6523382848529249e-01  9.6615712836739776e-01  9.6743758925048617e-01  9.6909278460929071e-01  9.7112867399197844e-01  9.7352843711556170e-01  9.7624357191906574e-01  9.7919057283333766e-01  9.8225539979329546e-01  9.8530570603406298e-01  9.8820826027610076e-01  9.9084725377395544e-01  9.9313895186897805e-01  9.9503945719480669e-01  9.9654457355382187e-01  9.9768298893412821e-01  9.9850547323962346e-01  9.9907317413599894e-01  9.9944750863546417e-01  9.9968297166039266e-01  9.9982275273670529e-01  9.9989529465150484e-01  9.9990741159242191e-01  9.9983092305594001e-01  9.9966836290147854e-01  9.9982680140458424e-01  9.9974616026273955e-01  9.9954528160062961e-01  9.9920028821702034e-01  9.9864584461399597e-01  9.9779500251784869e-01  9.9654653532392068e-01  9.9479509429831958e-01  9.9244638368111260e-01  9.8943589974000168e-01  9.8574761744429817e-01  9.8142771416782293e-01  9.7658856987175380e-01  9.7140025193553758e-01  9.6607016257085188e-01  9.6081538243380515e-01  9.5583489239436614e-01  9.5128894019196553e-01  9.4729004267350092e-01  9.4390564378722230e-01  9.4116844460594284e-01  9.3908879769151987e-01  9.3766477417741023e-01  9.3688836244832441e-01  9.3674883274210141e-01  9.3723528145989354e-01  9.3833961503740781e-01  9.4005948954789986e-01  9.4239903090137023e-01  9.4536451779143726e-01  9.4895332964851387e-01  9.5313734138127437e-01  9.5784546995639730e-01  9.6295230247155417e-01  9.6827901729878529e-01  9.7360900327077615e-01  9.7871530002643192e-01  9.8339266723847896e-01  9.8748560936531848e-01  9.9090542509958446e-01  9.9363326119346951e-01  9.9571046380464290e-01  9.9722065271158189e-01  9.9826908527545311e-01  9.9896410617436082e-01  9.9940344339167209e-01  9.9966542386238810e-01  9.9980164770846214e-01  9.9982227645185628e-01  9.9966836290147854e-01  9.9937389798268361e-01  9.9968589216464543e-01  9.9955092991363648e-01  9.9919885007350107e-01  9.9859378116341857e-01  9.9762400908258031e-01  9.9614113702025131e-01  9.9397451197301590e-01  9.9094994688371829e-01  9.8691660177027418e-01  9.8177900592035094e-01  9.7552742724776520e-01  9.6825784470066689e-01  9.6017362470462653e-01  9.5156518540575274e-01  9.4277066722936598e-01  9.3412762149890216e-01  9.2592981582771361e-01  9.1840186548958536e-01  9.1169730538975102e-01  9.0591588052031990e-01  9.0112824908132738e-01  8.9739502279169525e-01  8.9477246158249957e-01  8.9330559972328116e-01  8.9301620809953142e-01  8.9389477992382482e-01  8.9590268609239743e-01  8.9898475884061968e-01  9.0308635242915591e-01  9.0816498190481054e-01  9.1418728251286363e-01  9.2110808569198288e-01  9.2883772122894348e-01  9.3721141685264009e-01  9.4597617324199790e-01  9.5480440922884791e-01  9.6333301861994725e-01  9.7121659624524470e-01  9.7817887513128932e-01  9.8404820623693168e-01  9.8876947503830170e-01  9.9239286301777963e-01  9.9504618242632026e-01  9.9690035975443603e-01  9.9813689591071797e-01  9.9892281132205640e-01  9.9939375065133418e-01  9.9963910005475620e-01  9.9967192719886899e-01  9.9937389798268361e-01  9.9886237260414168e-01  9.9945094216433206e-01  9.9923579672466334e-01  9.9864323469265204e-01  9.9762432966208181e-01  9.9599669482133468e-01  9.9351867119495829e-01  9.8991665703189757e-01  9.8491840886068882e-01  9.7829881789956064e-01  9.6993218059292385e-01  9.5983865470795871e-01  9.4820991095191864e-01  9.3540150819689361e-01  9.2188796361099989e-01  9.0818913893240771e-01  8.9478890602712691e-01  8.8207295532740826e-01  8.7030725008083376e-01  8.5966216889213554e-01  8.5026673200176772e-01  8.4226341965479168e-01  8.3583521000537042e-01  8.3119208213061091e-01  8.2852516260339182e-01  8.2795169193263241e-01  8.2947695466619931e-01  8.3299107742290912e-01  8.3830363742060365e-01  8.4520248907779683e-01  8.5351083391577864e-01  8.6311456513553175e-01  8.7394376263484541e-01  8.8591410415295735e-01  8.9885485410411137e-01  9.1245819283143437e-01  9.2627549234924667e-01  9.3976535558499519e-01  9.5237706777644837e-01  9.6364116950773970e-01  9.7323953983532197e-01  9.8103787393143305e-01  9.8707771746916217e-01  9.9153735276546939e-01  9.9467719546367273e-01  9.9678526912625465e-01  9.9813325824404697e-01  9.9894532201226471e-01  9.9936921739825102e-01  9.9941756597854192e-01  9.9886237260414168e-01  9.9801068983163344e-01  9.9907478938559346e-01  9.9874875212195535e-01  9.9779098071048100e-01  9.9614334922837311e-01  9.9352176600493691e-01  9.8955109216799708e-01  9.8381496835150462e-01  9.7591297307442537e-01  9.6553559969448466e-01  9.5254572577603758e-01  9.3704506871117355e-01  9.1940085741804267e-01  9.0021398677345243e-01  8.8022616268301634e-01  8.6018656264001181e-01  8.4071977705439349e-01  8.2224463398944914e-01  8.0497903956188854e-01  7.8903056680472594e-01  7.7453133787554196e-01  7.6175144628997593e-01  7.5113351158055019e-01  7.4322856068173959e-01  7.3855927067097604e-01  7.3746724292503452e-01  7.4000548033874713e-01  7.4591883403983317e-01  7.5472269200541353e-01  7.6585256264350376e-01  7.7882591562660008e-01  7.9334771258737580e-01  8.0931279268184841e-01  8.2670548168245639e-01  8.4544567964328821e-01  8.6525434245135557e-01  8.8559825999308517e-01  9.0573485363596262e-01  9.2483513803943418e-01  9.4213658251573862e-01  9.5707463154886219e-01  9.6935758334864142e-01  9.7897385842963902e-01  9.8614284211871139e-01  9.9123356325320122e-01  9.9467749077097645e-01  9.9689458271203557e-01  9.9823803754615092e-01  9.9894074546725053e-01  9.9900550798482768e-01  9.9801068983163344e-01  9.9665241847113162e-01  9.9849673997437649e-01  9.9802825174569654e-01  9.9654124276542011e-01  9.9398213933820823e-01  9.8992914682125055e-01  9.8382775325815697e-01  9.7507811020889179e-01  9.6312971786943746e-01  9.4759961917105651e-01  9.2839359971155311e-01  9.0579413824917487e-01  8.8047558910213219e-01  8.5341984297776519e-01  8.2573558707879491e-01  7.9842489689183205e-01  7.7217654081965736e-01  7.4727448959004061e-01  7.2367667424820747e-01  7.0124775206722001e-01  6.8005200218647555e-01  6.6057259557502079e-01  6.4374903433746866e-01  6.3080456884334657e-01  6.2292623291480886e-01  6.2091734496800499e-01  6.2494874999247696e-01  6.3449945683448150e-01  6.4851442674513093e-01  6.6573011110185742e-01  6.8504838843384896e-01  7.0581046688381965e-01  7.2785990319567384e-01  7.5137857353457793e-01  7.7658289596828478e-01  8.0342328288308873e-01  8.3141233871323517e-01  8.5963628830232142e-01  8.8692356223004054e-01  9.1209158014833469e-01  9.3418132826686873e-01  9.5261207484921051e-01  9.6722808373582214e-01  9.7824766403383967e-01  9.8614998229918427e-01  9.9154209419809702e-01  9.9503955676659295e-01  9.9717247560286570e-01  9.9829054353321711e-01  9.9836667447961314e-01  9.9665241847113162e-01  9.9457914019613869e-01  9.9764444477097736e-01  9.9700839118535700e-01  9.9479006904364042e-01  9.9097086825684733e-01  9.8495449866659324e-01  9.7596151092295547e-01  9.6317663076805982e-01  9.4590016368583885e-01  9.2372747550990442e-01  8.9672103024330596e-01  8.6551596650156415e-01  8.3129823027090433e-01  7.9561901394641465e-01  7.6006199162689314e-01  7.2584932946452052e-01  6.9353057362368364e-01  6.6290619539252071e-01  6.3326727763832924e-01  6.0389794954064302e-01  5.7465004079243387e-01  5.4633962124494373e-01  5.2077582838617564e-01  5.0038599714464504e-01  4.8756549696809676e-01  4.8397930976334697e-01  4.9005210452304815e-01  5.0482318954320149e-01  5.2623212769897532e-01  5.5175453295684340e-01  5.7916451123345036e-01  6.0713089787636987e-01  6.3541564800416517e-01  6.6462022181485247e-01  6.9562754841492258e-01  7.2900264683005556e-01  7.6459314921475685e-01  8.0144767961148677e-01  8.3802656070509585e-01  8.7258174020461632e-01  9.0355455400080198e-01  9.2986972014637459e-01  9.5106480460508036e-01  9.6725807965381139e-01  9.7900311110861937e-01  9.8709570461735974e-01  9.9238894498695640e-01  9.9563978365382244e-01  9.9734789791112899e-01  9.9741945349786676e-01  9.9457914019613869e-01  9.9155307478231969e-01  9.9643945249562749e-01  9.9562764740800469e-01  9.9244646338943221e-01  9.8696705364266424e-01  9.7838773724914652e-01  9.6566823416930547e-01  9.4776843025778768e-01  9.2388211175215151e-01  8.9369976654020766e-01  8.5764148200603196e-01  8.1696706933525443e-01  7.7367227197083988e-01  7.3012479055270918e-01  6.8848349502999495e-01  6.5005922205326416e-01  6.1486672888594296e-01  5.8161622312325056e-01  5.4825555256467307e-01  5.1293493583876160e-01  4.7504158289038606e-01  4.3587224088132559e-01  3.9863477687109805e-01  3.6773756951965936e-01  3.4759909543264167e-01  3.4136929219295958e-01  3.4997257057786962e-01  3.7179330991082982e-01  4.0314600372511583e-01  4.3941259703747104e-01  4.7645821067130961e-01  5.1179109702547021e-01  5.4502510218861888e-01  5.7751379382579193e-01  6.1139216293707921e-01  6.4848165342395547e-01  6.8948985249870254e-01  7.3373175055670736e-01  7.7935878981845008e-01  8.2391435312652461e-01  8.6497542545194850e-01  9.0067389111718754e-01  9.2997926688681454e-01  9.5272541504845309e-01  9.6944205527398708e-01  9.8108825394065180e-01  9.8877729048598617e-01  9.9353600718881740e-01  9.9604300477645769e-01  9.9607734442385654e-01  9.9155307478231969e-01  9.8733485373452168e-01  9.9480717242778649e-01  9.9384063355247654e-01  9.8945259726889290e-01  9.8189002500485778e-01  9.7012927285213635e-01  9.5285445009390657e-01  9.2882918693227190e-01  8.9724502052444044e-01  8.5809281935948833e-01  8.1246326126253732e-01  7.6263497689369564e-01  7.1181844805284022e-01  6.6350114453181575e-01  6.2048623442156392e-01  5.8390023781582145e-01  5.5258024813771034e-01  5.2322483188343583e-01  4.9144251788254489e-01  4.5343738916313686e-01  4.0773437244949273e-01  3.5625631997130636e-01  3.0428099877205406e-01  2.5923073734360802e-01  2.2867155640562425e-01  2.1814414607112750e-01  2.2949004537319842e-01  2.6022445684773404e-01  3.0423962951901656e-01  3.5368864448250648e-01  4.0141928445962444e-01  4.4304969115349929e-01  4.7790204811919529e-01  5.0851967244819118e-01  5.3912216966138782e-01  5.7374620837146995e-01  6.1479583634240575e-01  6.6240179970901092e-01  7.1460966431259665e-01  7.6814751726250130e-01  8.1941213050966666e-01  8.6533978395456779e-01  9.0394819648308489e-01  9.3448924442948555e-01  9.5728152931575239e-01  9.7336098299671336e-01  9.8408751547325768e-01  9.9078213813228644e-01  9.9431949825876731e-01  9.9426212374096501e-01  9.8733485373452168e-01  9.8172772504597172e-01  9.9269111606284388e-01  9.9163122709278217e-01  9.8580463117144235e-01  9.7575456346128964e-01  9.6024143361916081e-01  9.3769082142513960e-01  9.0674944640780231e-01  8.6678646843008778e-01  8.1840063686457709e-01  7.6378931351435952e-01  7.0677110993431924e-01  6.5227775470631200e-01  6.0525888081838297e-0