<?xml version="1.0"?>
<VTKFile type="UnstructuredGrid"  version="0.1"  >
<UnstructuredGrid>
<Piece  NumberOfPoints="2601" NumberOfCells="5000">
<Points>
<DataArray  type="Float64"  NumberOfComponents="3"  format="ascii">0 0 0  0.02 0 0  0.04 0 0  0.06 0 0  0.08 0 0  0.1 0 0  0.12 0 0  0.14 0 0  0.16 0 0  0.18 0 0  0.2 0 0  0.22 0 0  0.24 0 0  0.26 0 0  0.28 0 0  0.3 0 0  0.32 0 0  0.34 0 0  0.36 0 0  0.38 0 0  0.4 0 0  0.42 0 0  0.44 0 0  0.46 0 0  0.48 0 0  0.5 0 0  0.52 0 0  0.54 0 0  0.5600000000000001 0 0  0.58 0 0  0.6 0 0  0.62 0 0  0.64 0 0  0.66 0 0  0.68 0 0  0.7 0 0  0.72 0 0  0.74 0 0  0.76 0 0  0.78 0 0  0.8 0 0  0.82 0 0  0.84 0 0  0.86 0 0  0.88 0 0  0.9 0 0  0.92 0 0  0.9399999999999999 0 0  0.96 0 0  0.98 0 0  1 0 0  0 0.02 0  0.02 0.02 0  0.04 0.02 0  0.06 0.02 0  0.08 0.02 0  0.1 0.02 0  0.12 0.02 0  0.14 0.02 0  0.16 0.02 0  0.18 0.02 0  0.2 0.02 0  0.22 0.02 0  0.24 0.02 0  0.26 0.02 0  0.28 0.02 0  0.3 0.02 0  0.32 0.02 0  0.34 0.02 0  0.36 0.02 0  0.38 0.02 0  0.4 0.02 0  0.42 0.02 0  0.44 0.02 0  0.46 0.02 0  0.48 0.02 0  0.5 0.02 0  0.52 0.02 0  0.54 0.02 0  0.5600000000000001 0.02 0  0.58 0.02 0  0.6 0.02 0  0.62 0.02 0  0.64 0.02 0  0.66 0.02 0  0.68 0.02 0  0.7 0.02 0  0.72 0.02 0  0.74 0.02 0  0.76 0.02 0  0.78 0.02 0  0.8 0.02 0  0.82 0.02 0  0.84 0.02 0  0.86 0.02 0  0.88 0.02 0  0.9 0.02 0  0.92 0.02 0  0.9399999999999999 0.02 0  0.96 0.02 0  0.98 0.02 0  1 0.02 0  0 0.04 0  0.02 0.04 0  0.04 0.04 0  0.06 0.04 0  0.08 0.04 0  0.1 0.04 0  0.12 0.04 0  0.14 0.04 0  0.16 0.04 0  0.18 0.04 0  0.2 0.04 0  0.22 0.04 0  0.24 0.04 0  0.26 0.04 0  0.28 0.04 0  0.3 0.04 0  0.32 0.04 0  0.34 0.04 0  0.36 0.04 0  0.38 0.04 0  0.4 0.04 0  0.42 0.04 0  0.44 0.04 0  0.46 0.04 0  0.48 0.04 0  0.5 0.04 0  0.52 0.04 0  0.54 0.04 0  0.5600000000000001 0.04 0  0.58 0.04 0  0.6 0.04 0  0.62 0.04 0  0.64 0.04 0  0.66 0.04 0  0.68 0.04 0  0.7 0.04 0  0.72 0.04 0  0.74 0.04 0  0.76 0.04 0  0.78 0.04 0  0.8 0.04 0  0.82 0.04 0  0.84 0.04 0  0.86 0.04 0  0.88 0.04 0  0.9 0.04 0  0.92 0.04 0  0.9399999999999999 0.04 0  0.96 0.04 0  0.98 0.04 0  1 0.04 0  0 0.06 0  0.02 0.06 0  0.04 0.06 0  0.06 0.06 0  0.08 0.06 0  0.1 0.06 0  0.12 0.06 0  0.14 0.06 0  0.16 0.06 0  0.18 0.06 0  0.2 0.06 0  0.22 0.06 0  0.24 0.06 0  0.26 0.06 0  0.28 0.06 0  0.3 0.06 0  0.32 0.06 0  0.34 0.06 0  0.36 0.06 0  0.38 0.06 0  0.4 0.06 0  0.42 0.06 0  0.44 0.06 0  0.46 0.06 0  0.48 0.06 0  0.5 0.06 0  0.52 0.06 0  0.54 0.06 0  0.5600000000000001 0.06 0  0.58 0.06 0  0.6 0.06 0  0.62 0.06 0  0.64 0.06 0  0.66 0.06 0  0.68 0.06 0  0.7 0.06 0  0.72 0.06 0  0.74 0.06 0  0.76 0.06 0  0.78 0.06 0  0.8 0.06 0  0.82 0.06 0  0.84 0.06 0  0.86 0.06 0  0.88 0.06 0  0.9 0.06 0  0.92 0.06 0  0.9399999999999999 0.06 0  0.96 0.06 0  0.98 0.06 0  1 0.06 0  0 0.08 0  0.02 0.08 0  0.04 0.08 0  0.06 0.08 0  0.08 0.08 0  0.1 0.08 0  0.12 0.08 0  0.14 0.08 0  0.16 0.08 0  0.18 0.08 0  0.2 0.08 0  0.22 0.08 0  0.24 0.08 0  0.26 0.08 0  0.28 0.08 0  0.3 0.08 0  0.32 0.08 0  0.34 0.08 0  0.36 0.08 0  0.38 0.08 0  0.4 0.08 0  0.42 0.08 0  0.44 0.08 0  0.46 0.08 0  0.48 0.08 0  0.5 0.08 0  0.52 0.08 0  0.54 0.08 0  0.5600000000000001 0.08 0  0.58 0.08 0  0.6 0.08 0  0.62 0.08 0  0.64 0.08 0  0.66 0.08 0  0.68 0.08 0  0.7 0.08 0  0.72 0.08 0  0.74 0.08 0  0.76 0.08 0  0.78 0.08 0  0.8 0.08 0  0.82 0.08 0  0.84 0.08 0  0.86 0.08 0  0.88 0.08 0  0.9 0.08 0  0.92 0.08 0  0.9399999999999999 0.08 0  0.96 0.08 0  0.98 0.08 0  1 0.08 0  0 0.1 0  0.02 0.1 0  0.04 0.1 0  0.06 0.1 0  0.08 0.1 0  0.1 0.1 0  0.12 0.1 0  0.14 0.1 0  0.16 0.1 0  0.18 0.1 0  0.2 0.1 0  0.22 0.1 0  0.24 0.1 0  0.26 0.1 0  0.28 0.1 0  0.3 0.1 0  0.32 0.1 0  0.34 0.1 0  0.36 0.1 0  0.38 0.1 0  0.4 0.1 0  0.42 0.1 0  0.44 0.1 0  0.46 0.1 0  0.48 0.1 0  0.5 0.1 0  0.52 0.1 0  0.54 0.1 0  0.5600000000000001 0.1 0  0.58 0.1 0  0.6 0.1 0  0.62 0.1 0  0.64 0.1 0  0.66 0.1 0  0.68 0.1 0  0.7 0.1 0  0.72 0.1 0  0.74 0.1 0  0.76 0.1 0  0.78 0.1 0  0.8 0.1 0  0.82 0.1 0  0.84 0.1 0  0.86 0.1 0  0.88 0.1 0  0.9 0.1 0  0.92 0.1 0  0.9399999999999999 0.1 0  0.96 0.1 0  0.98 0.1 0  1 0.1 0  0 0.12 0  0.02 0.12 0  0.04 0.12 0  0.06 0.12 0  0.08 0.12 0  0.1 0.12 0  0.12 0.12 0  0.14 0.12 0  0.16 0.12 0  0.18 0.12 0  0.2 0.12 0  0.22 0.12 0  0.24 0.12 0  0.26 0.12 0  0.28 0.12 0  0.3 0.12 0  0.32 0.12 0  0.34 0.12 0  0.36 0.12 0  0.38 0.12 0  0.4 0.12 0  0.42 0.12 0  0.44 0.12 0  0.46 0.12 0  0.48 0.12 0  0.5 0.12 0  0.52 0.12 0  0.54 0.12 0  0.5600000000000001 0.12 0  0.58 0.12 0  0.6 0.12 0  0.62 0.12 0  0.64 0.12 0  0.66 0.12 0  0.68 0.12 0  0.7 0.12 0  0.72 0.12 0  0.74 0.12 0  0.76 0.12 0  0.78 0.12 0  0.8 0.12 0  0.82 0.12 0  0.84 0.12 0  0.86 0.12 0  0.88 0.12 0  0.9 0.12 0  0.92 0.12 0  0.9399999999999999 0.12 0  0.96 0.12 0  0.98 0.12 0  1 0.12 0  0 0.14 0  0.02 0.14 0  0.04 0.14 0  0.06 0.14 0  0.08 0.14 0  0.1 0.14 0  0.12 0.14 0  0.14 0.14 0  0.16 0.14 0  0.18 0.14 0  0.2 0.14 0  0.22 0.14 0  0.24 0.14 0  0.26 0.14 0  0.28 0.14 0  0.3 0.14 0  0.32 0.14 0  0.34 0.14 0  0.36 0.14 0  0.38 0.14 0  0.4 0.14 0  0.42 0.14 0  0.44 0.14 0  0.46 0.14 0  0.48 0.14 0  0.5 0.14 0  0.52 0.14 0  0.54 0.14 0  0.5600000000000001 0.14 0  0.58 0.14 0  0.6 0.14 0  0.62 0.14 0  0.64 0.14 0  0.66 0.14 0  0.68 0.14 0  0.7 0.14 0  0.72 0.14 0  0.74 0.14 0  0.76 0.14 0  0.78 0.14 0  0.8 0.14 0  0.82 0.14 0  0.84 0.14 0  0.86 0.14 0  0.88 0.14 0  0.9 0.14 0  0.92 0.14 0  0.9399999999999999 0.14 0  0.96 0.14 0  0.98 0.14 0  1 0.14 0  0 0.16 0  0.02 0.16 0  0.04 0.16 0  0.06 0.16 0  0.08 0.16 0  0.1 0.16 0  0.12 0.16 0  0.14 0.16 0  0.16 0.16 0  0.18 0.16 0  0.2 0.16 0  0.22 0.16 0  0.24 0.16 0  0.26 0.16 0  0.28 0.16 0  0.3 0.16 0  0.32 0.16 0  0.34 0.16 0  0.36 0.16 0  0.38 0.16 0  0.4 0.16 0  0.42 0.16 0  0.44 0.16 0  0.46 0.16 0  0.48 0.16 0  0.5 0.16 0  0.52 0.16 0  0.54 0.16 0  0.5600000000000001 0.16 0  0.58 0.16 0  0.6 0.16 0  0.62 0.16 0  0.64 0.16 0  0.66 0.16 0  0.68 0.16 0  0.7 0.16 0  0.72 0.16 0  0.74 0.16 0  0.76 0.16 0  0.78 0.16 0  0.8 0.16 0  0.82 0.16 0  0.84 0.16 0  0.86 0.16 0  0.88 0.16 0  0.9 0.16 0  0.92 0.16 0  0.9399999999999999 0.16 0  0.96 0.16 0  0.98 0.16 0  1 0.16 0  0 0.18 0  0.02 0.18 0  0.04 0.18 0  0.06 0.18 0  0.08 0.18 0  0.1 0.18 0  0.12 0.18 0  0.14 0.18 0  0.16 0.18 0  0.18 0.18 0  0.2 0.18 0  0.22 0.18 0  0.24 0.18 0  0.26 0.18 0  0.28 0.18 0  0.3 0.18 0  0.32 0.18 0  0.34 0.18 0  0.36 0.18 0  0.38 0.18 0  0.4 0.18 0  0.42 0.18 0  0.44 0.18 0  0.46 0.18 0  0.48 0.18 0  0.5 0.18 0  0.52 0.18 0  0.54 0.18 0  0.5600000000000001 0.18 0  0.58 0.18 0  0.6 0.18 0  0.62 0.18 0  0.64 0.18 0  0.66 0.18 0  0.68 0.18 0  0.7 0.18 0  0.72 0.18 0  0.74 0.18 0  0.76 0.18 0  0.78 0.18 0  0.8 0.18 0  0.82 0.18 0  0.84 0.18 0  0.86 0.18 0  0.88 0.18 0  0.9 0.18 0  0.92 0.18 0  0.9399999999999999 0.18 0  0.96 0.18 0  0.98 0.18 0  1 0.18 0  0 0.2 0  0.02 0.2 0  0.04 0.2 0  0.06 0.2 0  0.08 0.2 0  0.1 0.2 0  0.12 0.2 0  0.14 0.2 0  0.16 0.2 0  0.18 0.2 0  0.2 0.2 0  0.22 0.2 0  0.24 0.2 0  0.26 0.2 0  0.28 0.2 0  0.3 0.2 0  0.32 0.2 0  0.34 0.2 0  0.36 0.2 0  0.38 0.2 0  0.4 0.2 0  0.42 0.2 0  0.44 0.2 0  0.46 0.2 0  0.48 0.2 0  0.5 0.2 0  0.52 0.2 0  0.54 0.2 0  0.5600000000000001 0.2 0  0.58 0.2 0  0.6 0.2 0  0.62 0.2 0  0.64 0.2 0  0.66 0.2 0  0.68 0.2 0  0.7 0.2 0  0.72 0.2 0  0.74 0.2 0  0.76 0.2 0  0.78 0.2 0  0.8 0.2 0  0.82 0.2 0  0.84 0.2 0  0.86 0.2 0  0.88 0.2 0  0.9 0.2 0  0.92 0.2 0  0.9399999999999999 0.2 0  0.96 0.2 0  0.98 0.2 0  1 0.2 0  0 0.22 0  0.02 0.22 0  0.04 0.22 0  0.06 0.22 0  0.08 0.22 0  0.1 0.22 0  0.12 0.22 0  0.14 0.22 0  0.16 0.22 0  0.18 0.22 0  0.2 0.22 0  0.22 0.22 0  0.24 0.22 0  0.26 0.22 0  0.28 0.22 0  0.3 0.22 0  0.32 0.22 0  0.34 0.22 0  0.36 0.22 0  0.38 0.22 0  0.4 0.22 0  0.42 0.22 0  0.44 0.22 0  0.46 0.22 0  0.48 0.22 0  0.5 0.22 0  0.52 0.22 0  0.54 0.22 0  0.5600000000000001 0.22 0  0.58 0.22 0  0.6 0.22 0  0.62 0.22 0  0.64 0.22 0  0.66 0.22 0  0.68 0.22 0  0.7 0.22 0  0.72 0.22 0  0.74 0.22 0  0.76 0.22 0  0.78 0.22 0  0.8 0.22 0  0.82 0.22 0  0.84 0.22 0  0.86 0.22 0  0.88 0.22 0  0.9 0.22 0  0.92 0.22 0  0.9399999999999999 0.22 0  0.96 0.22 0  0.98 0.22 0  1 0.22 0  0 0.24 0  0.02 0.24 0  0.04 0.24 0  0.06 0.24 0  0.08 0.24 0  0.1 0.24 0  0.12 0.24 0  0.14 0.24 0  0.16 0.24 0  0.18 0.24 0  0.2 0.24 0  0.22 0.24 0  0.24 0.24 0  0.26 0.24 0  0.28 0.24 0  0.3 0.24 0  0.32 0.24 0  0.34 0.24 0  0.36 0.24 0  0.38 0.24 0  0.4 0.24 0  0.42 0.24 0  0.44 0.24 0  0.46 0.24 0  0.48 0.24 0  0.5 0.24 0  0.52 0.24 0  0.54 0.24 0  0.5600000000000001 0.24 0  0.58 0.24 0  0.6 0.24 0  0.62 0.24 0  0.64 0.24 0  0.66 0.24 0  0.68 0.24 0  0.7 0.24 0  0.72 0.24 0  0.74 0.24 0  0.76 0.24 0  0.78 0.24 0  0.8 0.24 0  0.82 0.24 0  0.84 0.24 0  0.86 0.24 0  0.88 0.24 0  0.9 0.24 0  0.92 0.24 0  0.9399999999999999 0.24 0  0.96 0.24 0  0.98 0.24 0  1 0.24 0  0 0.26 0  0.02 0.26 0  0.04 0.26 0  0.06 0.26 0  0.08 0.26 0  0.1 0.26 0  0.12 0.26 0  0.14 0.26 0  0.16 0.26 0  0.18 0.26 0  0.2 0.26 0  0.22 0.26 0  0.24 0.26 0  0.26 0.26 0  0.28 0.26 0  0.3 0.26 0  0.32 0.26 0  0.34 0.26 0  0.36 0.26 0  0.38 0.26 0  0.4 0.26 0  0.42 0.26 0  0.44 0.26 0  0.46 0.26 0  0.48 0.26 0  0.5 0.26 0  0.52 0.26 0  0.54 0.26 0  0.5600000000000001 0.26 0  0.58 0.26 0  0.6 0.26 0  0.62 0.26 0  0.64 0.26 0  0.66 0.26 0  0.68 0.26 0  0.7 0.26 0  0.72 0.26 0  0.74 0.26 0  0.76 0.26 0  0.78 0.26 0  0.8 0.26 0  0.82 0.26 0  0.84 0.26 0  0.86 0.26 0  0.88 0.26 0  0.9 0.26 0  0.92 0.26 0  0.9399999999999999 0.26 0  0.96 0.26 0  0.98 0.26 0  1 0.26 0  0 0.28 0  0.02 0.28 0  0.04 0.28 0  0.06 0.28 0  0.08 0.28 0  0.1 0.28 0  0.12 0.28 0  0.14 0.28 0  0.16 0.28 0  0.18 0.28 0  0.2 0.28 0  0.22 0.28 0  0.24 0.28 0  0.26 0.28 0  0.28 0.28 0  0.3 0.28 0  0.32 0.28 0  0.34 0.28 0  0.36 0.28 0  0.38 0.28 0  0.4 0.28 0  0.42 0.28 0  0.44 0.28 0  0.46 0.28 0  0.48 0.28 0  0.5 0.28 0  0.52 0.28 0  0.54 0.28 0  0.5600000000000001 0.28 0  0.58 0.28 0  0.6 0.28 0  0.62 0.28 0  0.64 0.28 0  0.66 0.28 0  0.68 0.28 0  0.7 0.28 0  0.72 0.28 0  0.74 0.28 0  0.76 0.28 0  0.78 0.28 0  0.8 0.28 0  0.82 0.28 0  0.84 0.28 0  0.86 0.28
[...]
<PointData  Scalars="q_f"> 
<DataArray  type="Float64"  Name="q_f"  format="ascii">9.9999887430456758e-01  9.9999860555783227e-01  9.9999746398372835e-01  9.9999514033508308e-01  9.9999089201902791e-01  9.9998351944681674e-01  9.9997127192041113e-01  9.9995177811307445e-01  9.9992206420394758e-01  9.9987872464705063e-01  9.9981829749264883e-01  9.9973785738857202e-01  9.9963577303801565e-01  9.9951249328560454e-01  9.9937115312660274e-01  9.9921776276029850e-01  9.9906079033209783e-01  9.9891008260109648e-01  9.9877526396098970e-01  9.9866395541133324e-01  9.9858028470085725e-01  9.9852415100671776e-01  9.9849153763241338e-01  9.9847586989044113e-01  9.9847008360466505e-01  9.9846881908846252e-01  9.9847008360515876e-01  9.9847586989038650e-01  9.9849153763217113e-01  9.9852415100667891e-01  9.9858028470101023e-01  9.9866395541173392e-01  9.9877526396068461e-01  9.9891008260111858e-01  9.9906079033212425e-01  9.9921776276023411e-01  9.9937115312679481e-01  9.9951249328557634e-01  9.9963577303813256e-01  9.9973785738858745e-01  9.9981829749296702e-01  9.9987872464670347e-01  9.9992206420372898e-01  9.9995177811331548e-01  9.9997127192035229e-01  9.9998351944647756e-01  9.9999089201960756e-01  9.9999514033492443e-01  9.9999746398398459e-01  9.9999860555731068e-01  9.9999887430456758e-01  9.9999849261840057e-01  9.9999889429921973e-01  9.9999812535995491e-01  9.9999655501577234e-01  9.9999382152869054e-01  9.9998929380573420e-01  9.9998209708241392e-01  9.9997111130866656e-01  9.9995500959500083e-01  9.9993236040544931e-01  9.9990180460615230e-01  9.9986230117591512e-01  9.9981341205072283e-01  9.9975557195399700e-01  9.9969027139383115e-01  9.9962007953372822e-01  9.9954845516306445e-01  9.9947933910256992e-01  9.9941658186395788e-01  9.9936331973491865e-01  9.9932144982421844e-01  9.9929135207550857e-01  9.9927195637279498e-01  9.9926116409025934e-01  9.9925652978970514e-01  9.9925602342455322e-01  9.9925865734371522e-01  9.9926479225989007e-01  9.9927602664895976e-01  9.9929469743060095e-01  9.9932313610989287e-01  9.9936289553431901e-01  9.9941416551758189e-01  9.9947553220517948e-01  9.9954412985311614e-01  9.9961612135699840e-01  9.9968736098865796e-01  9.9975406179389803e-01  9.9981331372700177e-01  9.9986336140264087e-01  9.9990362670044930e-01  9.9993452607233413e-01  9.9995716885943331e-01  9.9997302763073503e-01  9.9998365154669155e-01  9.9999046186502616e-01  9.9999463698644597e-01  9.9999707038361374e-01  9.9999836917280061e-01  9.9999885062704175e-01  9.9999849261840057e-01  9.9999665802148674e-01  9.9999773830347449e-01  9.9999630847462873e-01  9.9999330813098497e-01  9.9998818276362578e-01  9.9997988029740370e-01  9.9996699280645085e-01  9.9994781274341626e-01  9.9992044995501561e-01  9.9988304184114940e-01  9.9983405212034671e-01  9.9977262229139219e-01  9.9969891038001590e-01  9.9961433265196342e-01  9.9952162558379787e-01  9.9942467315412453e-01  9.9932809524295940e-01  9.9923665452318211e-01  9.9915459421451058e-01  9.9908504942946774e-01  9.9902966920112957e-01  9.9898854352378930e-01  9.9896045948310175e-01  9.9894343026240173e-01  9.9893537081878325e-01  9.9893475270942533e-01  9.9894107047417313e-01  9.9895499532889298e-01  9.9897817028709346e-01  9.9901269433905449e-01  9.9906042650941529e-01  9.9912229032349653e-01  9.9919776027955121e-01  9.9928466404287186e-01  9.9937935052079674e-01  9.9947717877138176e-01  9.9957320314262010e-01  9.9966288854129670e-01  9.9974269629612400e-01  9.9981043015928328e-01  9.9986530472882318e-01  9.9990777042755752e-01  9.9993917909122010e-01  9.9996139178706533e-01  9.9997641761695999e-01  9.9998613994839225e-01  9.9999214821669846e-01  9.9999565866118623e-01  9.9999747703891950e-01  9.9999792603259852e-01  9.9999665802148674e-01  9.9999217826697895e-01  9.9999493491939206e-01  9.9999184182700496e-01  9.9998522969300541e-01  9.9997393881650931e-01  9.9995568455651429e-01  9.9992742176633742e-01  9.9988548873307903e-01  9.9982588144748608e-01  9.9974472615393695e-01  9.9963893210333565e-01  9.9950693736432583e-01  9.9934939894704344e-01  9.9916964453812751e-01  9.9897371822097925e-01  9.9876992465563463e-01  9.9856789344571617e-01  9.9837731659259077e-01  9.9820661518677534e-01  9.9806183090330092e-01  9.9794599717417476e-01  9.9785913420337069e-01  9.9779886277354557e-01  9.9776148439639689e-01  9.9774326556835202e-01  9.9774161579937559e-01  9.9775587252940834e-01  9.9778749801372935e-01  9.9783963249782259e-01  9.9791610735940262e-01  9.9802015633983954e-01  9.9815314318031612e-01  9.9831362507844512e-01  9.9849699226291511e-01  9.9869578348736798e-01  9.9890060973853523e-01  9.9910146910377728e-01  9.9928914653560619e-01  9.9945638922591007e-01  9.9959862918081177e-01  9.9971416003261016e-01  9.9980381838825938e-01  9.9987032692147559e-01  9.9991750104394006e-01  9.9994950294501084e-01  9.9997026498187258e-01  9.9998312632579134e-01  9.9999065145194077e-01  9.9999452749673423e-01  9.9999535824184715e-01  9.9999217826697895e-01  9.9998216919328120e-01  9.9998895401873455e-01  9.9998247219366676e-01  9.9996829785763541e-01  9.9994406074537723e-01  9.9990489279351547e-01  9.9984430126445190e-01  9.9975450559499568e-01  9.9962704068704267e-01  9.9945377635425148e-01  9.9922830792338369e-01  9.9894752454515789e-01  9.9861303374839849e-01  9.9823205607640064e-01  9.9781744595318789e-01  9.9738665960521633e-01  9.9695974737036741e-01  9.9655672223257252e-01  9.9619485638166327e-01  9.9588650956285429e-01  9.9563797475115856e-01  9.9544957647473031e-01  9.9531695458233715e-01  9.9523319639734731e-01  9.9519130197705996e-01  9.9518640830478888e-01  9.9521725671670602e-01  9.9528656158245110e-01  9.9540018073800296e-01  9.9556526913923316e-01  9.9578784170472789e-01  9.9607031835055504e-01  9.9640965190341113e-01  9.9679651732756624e-01  9.9721580318701819e-01  9.9764833501228922e-01  9.9807345505657064e-01  9.9847187128852399e-01  9.9882813952900062e-01  9.9913227363763601e-01  9.9938024209043930e-01  9.9957341110438147e-01  9.9971723538946178e-01  9.9981961296271316e-01  9.9988929937504523e-01  9.9993465554514205e-01  9.9996283839527800e-01  9.9997937676601523e-01  9.9998790625600331e-01  9.9998963696889021e-01  9.9998216919328120e-01  9.9996080827475142e-01  9.9997676650420331e-01  9.9996375779841984e-01  9.9993455164774758e-01  9.9988454743647537e-01  9.9980379794855123e-01  9.9967902920046381e-01  9.9949439777561777e-01  9.9923276524171656e-01  9.9887780607481103e-01  9.9841684336839021e-01  9.9784400212743918e-01  9.9716301592997825e-01  9.9638890397395263e-01  9.9554784258651641e-01  9.9467491780510575e-01  9.9380999000483861e-01  9.9299245611378184e-01  9.9225605549461693e-01  9.9162489029912393e-01  9.9111150895129485e-01  9.9071735564885555e-01  9.9043531339645496e-01  9.9025363018784418e-01  9.9016029265788674e-01  9.9014688645496374e-01  9.9021112591089222e-01  9.9035750363155295e-01  9.9059592414375019e-01  9.9093855566259725e-01  9.9139560254196746e-01  9.9197089854596188e-01  9.9265836004952313e-01  9.9344020134915700e-01  9.9428747749263835e-01  9.9516299942172748e-01  9.9602607064781956e-01  9.9683800266131095e-01  9.9756715734169343e-01  9.9819242989133516e-01  9.9870456652574213e-01  9.9910532483514403e-01  9.9940501275854021e-01  9.9961922763104427e-01  9.9976561595945035e-01  9.9986125056209796e-01  9.9992088690084269e-01  9.9995600425496578e-01  9.9997415363302078e-01  9.9997765024313590e-01  9.9996080827475142e-01  9.9991705181025570e-01  9.9995291317234336e-01  9.9992793218298359e-01  9.9987013826215243e-01  9.9977108104458101e-01  9.9961130853112778e-01  9.9936485860221835e-01  9.9900090414076381e-01  9.9848634374215350e-01  9.9778997976515671e-01  9.9688804724779201e-01  9.9577026202242480e-01  9.9444507352505929e-01  9.9294259567796661e-01  9.9131393675532653e-01  9.8962642805432666e-01  9.8795539198808480e-01  9.8637418356145146e-01  9.8494482466966671e-01  9.8371137355580385e-01  9.8269731871027011e-01  9.8190712721041817e-01  9.8133106662335523e-01  9.8095185749061820e-01  9.8075161683115708e-01  9.8071772633070520e-01  9.8084660536433166e-01  9.8114466415198665e-01  9.8162635881195048e-01  9.8230955346387216e-01  9.8320902815291689e-01  9.8432942479281305e-01  9.8565901501780628e-01  9.8716595989617684e-01  9.8879828040612294e-01  9.9048809776248381e-01  9.9215959560347611e-01  9.9373905090222991e-01  9.9516460152100839e-01  9.9639349296542923e-01  9.9740535444351142e-01  9.9820125116538783e-01  9.9879937717010669e-01  9.9922892536477925e-01  9.9952376678391808e-01  9.9971718628925832e-01  9.9983827454193797e-01  9.9990984550100226e-01  9.9994691100815358e-01  9.9995361808608607e-01  9.9991705181025570e-01  9.9983099625959548e-01  9.9990805428807750e-01  9.9986219062657777e-01  9.9975237366299785e-01  9.9956398092292686e-01  9.9926062888116496e-01  9.9879376874055847e-01  9.9810613634547118e-01  9.9713682037635243e-01  9.9582919833626093e-01  9.9414123998941706e-01  9.9205657208257092e-01  9.8959381470265606e-01  9.8681130969996145e-01  9.8380487621219415e-01  9.8069787387893359e-01  9.7762526269285144e-01  9.7471549228403997e-01  9.7207483777459047e-01  9.6977783199881784e-01  9.6786524710289590e-01  9.6634869819405411e-01  9.6521937844176453e-01  9.6445813135648706e-01  9.6404467615947320e-01  9.6396467110502748e-01  9.6421385188748543e-01  9.6479913713632781e-01  9.6573620857212661e-01  9.6704478554809459e-01  9.6874024770631573e-01  9.7082437209205541e-01  9.7327535379423380e-01  9.7604028884984062e-01  9.7903262354348242e-01  9.8213669027209627e-01  9.8521957761176226e-01  9.8814814512484628e-01  9.9080706338164415e-01  9.9311333097512300e-01  9.9502395083573425e-01  9.9653569928204566e-01  9.9767820375275129e-01  9.9850304995366079e-01  9.9907202481277746e-01  9.9944699891367939e-01  9.9968275967143250e-01  9.9982266945786957e-01  9.9989526754941915e-01  9.9990742351573758e-01  9.9983099625959548e-01  9.9966855616547468e-01  9.9982700044310746e-01  9.9974657779889675e-01  9.9954621475995287e-01  9.9920223660805951e-01  9.9864958577439111e-01  9.9780151275298334e-01  9.9655655475036919e-01  9.9480807727699405e-01  9.9245871605084346e-01  9.8943872517274212e-01  9.8572529367728845e-01  9.8135831962863718e-01  9.7644733755642954e-01  9.7116522731228250e-01  9.6572778145115057e-01  9.6036343738326058e-01  9.5528174677820810e-01  9.5064968300307562e-01  9.4658135287377576e-01  9.4314122905608666e-01  9.4035641144343096e-01  9.3823159837440318e-01  9.3676172170562044e-01  9.3594006893140691e-01  9.3576214388839984e-01  9.3622640599517826e-01  9.3733451327484185e-01  9.3908956005545607e-01  9.4149584390326846e-01  9.4455400020272962e-01  9.4825109063888557e-01  9.5254856987697090e-01  9.5736655967497564e-01  9.6257410592460357e-01  9.6798954656915881e-01  9.7339506633168793e-01  9.7856336468573768e-01  9.8328949778879138e-01  9.8741893776996703e-01  9.9086459127193505e-01  9.9360964651169714e-01  9.9569761125248957e-01  9.9721408903151232e-01  9.9826594804249325e-01  9.9896270427541445e-01  9.9940285458523481e-01  9.9966518643072566e-01  9.9980156090174255e-01  9.9982229462296279e-01  9.9966855616547468e-01  9.9937438293780056e-01  9.9968631227400628e-01  9.9955178202701878e-01  9.9920075811256481e-01  9.9859777136461370e-01  9.9763167450655121e-01  9.9615444557568555e-01  9.9399479834965820e-01  9.9097547515060169e-01  9.8693842897436868e-01  9.8177605747000007e-01  9.7546343849838535e-01  9.6808372645367946e-01  9.5983702150055283e-01  9.5102441608031951e-01  9.4200621892921899e-01  9.3314516390692837e-01  9.2475406347503186e-01  9.1706554672456020e-01  9.1023045863658714e-01  9.0433882377471730e-01  8.9944937332317854e-01  8.9561323160688355e-01  8.9288369030643622e-01  8.9131235481176785e-01  8.9093700040869772e-01  8.9176978796289352e-01  8.9378950317380768e-01  8.9695289497538333e-01  9.0119541050386986e-01  9.0646626852105883e-01  9.1270615498438590e-01  9.1985159585574783e-01  9.2779827572856410e-01  9.3637385632841419e-01  9.4532155894350023e-01  9.5431106079556371e-01  9.6297659976356820e-01  9.7097101117231233e-01  9.7801816276951825e-01  9.8394868169919258e-01  9.8871134201006350e-01  9.9236093220253907e-01  9.9502973597007938e-01  9.9689243536555305e-01  9.9813332653628850e-01  9.9892129682202935e-01  9.9939312427857574e-01  9.9963884764532984e-01  9.9967193889808770e-01  9.9937438293780056e-01  9.9886352233733666e-01  9.9945176827659199e-01  9.9923740005131723e-01  9.9864683066881532e-01  9.9763185675470334e-01  9.9601115522402595e-01  9.9354370456035812e-01  9.8995436943486537e-01  9.8496409671644725e-01  9.7833203002712343e-01  9.6990643854151903e-01  9.5967639159690143e-01  9.4781094903008856e-01  9.3466781855591041e-01  9.2075505979795014e-01  9.0664557866788975e-01  8.9287164719220713e-01  8.7984383455998860e-01  8.6782657038677125e-01  8.5697136132303087e-01  8.4738273394783048e-01  8.3918201502391510e-01  8.3254005451546043e-01  8.2766839920923485e-01  8.2477770482729018e-01  8.2402247573999809e-01  8.2545253269643915e-01  8.2898916617840168e-01  8.3446301217415975e-01  8.4163096879105637e-01  8.5028522822511576e-01  8.6027958029553797e-01  8.7149481428737297e-01  8.8384089598462723e-01  8.9714102388044215e-01  9.1108602509518510e-01  9.2522011860457098e-01  9.3899035545806808e-01  9.5183593174712711e-01  9.6328297670841467e-01  9.7301538749453353e-01  9.8090563706981326e-01  9.8700438750595365e-01  9.9149923634596826e-01  9.9465866819688187e-01  9.9677685084114642e-01  9.9812964706222185e-01  9.9894378965353425e-01  9.9936854380771623e-01  9.9941751264652245e-01  9.9886352233733666e-01  9.9801325103422311e-01  9.9907629093417205e-01  9.9875150078565256e-01  9.9779715458090457e-01  9.9615626099458998e-01  9.9354651642903369e-01  9.8959367111128893e-01  9.8387787370864699e-01  9.7598454620715003e-01  9.6557210966256557e-01  9.5245199122700386e-01  9.3666916126010746e-01  9.1856080156659736e-01  8.9875708693804113e-01  8.7809070731239269e-01  8.5742129140860079e-01  8.3744452264823277e-01  8.1858394806454882e-01  8.0101446365651063e-01  7.8478811357521350e-01  7.6999240963976712e-01  7.5687086024265160e-01  7.4585692348316801e-01  7.3751275153532281e-01  7.3240167339877393e-01  7.3093766162847906e-01  7.3325571629804454e-01  7.3918989378621813e-01  7.4820720855972200e-01  7.5987122539214058e-01  7.7330743183268902e-01  7.8848187274627723e-01  8.0498582956261489e-01  8.2292419170052777e-01  8.4221407128013415e-01  8.6259438949364475e-01  8.8350979071994262e-01  9.0417823500536720e-01  9.2373555046053302e-01  9.4140105125333085e-01  9.5660947915989303e-01  9.6908020171214138e-01  9.7881837370164548e-01  9.8606116860353010e-01  9.9119346144740583e-01  9.9465908719520391e-01  9.9688659155802595e-01  9.9823455402566919e-01  9.9893908416796784e-01  9.9900520464853060e-01  9.9801325103422311e-01  9.9665775254898414e-01  9.9849923187185663e-01  9.9803245786815531e-01  9.9655070527600031e-01  9.9400182226865375e-01  9.8996655491340979e-01  9.8389106776292323e-01  9.7516783905540905e-01  9.6321853896511977e-01  9.4759928622882095e-01  9.2812332579810752e-01  9.0498609284235287e-01  8.7885157309112227e-01  8.5081980759222697e-01  8.2220986754422187e-01  7.9420481916701557e-01  7.6753426283058557e-01  7.4238250167526099e-01  7.1856619973706504e-01  6.9585344271988425e-01  6.7427027593493849e-01  6.5429074485504468e-01  6.3684803963026115e-01  6.2316724738570139e-01  6.1447886208022506e-01  6.1169499660067295e-01  6.1516055072309905e-01  6.2449559545790234e-01  6.3873424064705275e-01  6.5674124663903943e-01  6.7681499735505035e-01  6.9819114178279285e-01  7.2107118446799778e-01  7.4509782873879193e-01  7.7099248109329743e-01  7.9868147009829493e-01  8.2761361965866265e-01  8.5676817351126733e-01  8.8487688151181532e-01  9.1070805818479483e-01  9.3329585072786281e-01  9.5207708704461813e-01  9.6692416281735705e-01  9.7808593762515306e-01  9.8606959693873220e-01  9.9150476547250332e-01  9.9502312105255619e-01  9.9716510067255437e-01  9.9828673825044623e-01  9.9836563804043166e-01  9.9665775254898414e-01  9.9458947756765359e-01  9.9764814107259991e-01  9.9701390220794361e-01  9.9480250592344466e-01  9.9099631053264015e-01  9.8500162314732775e-01  9.7603775707136153e-01  9.6327315435229888e-01  9.4595635388410748e-01  9.2357550313801662e-01  8.9604567729927498e-01  8.6390844983047688e-01  8.2845523416096056e-01  7.9157972549223898e-01  7.5524931810621709e-01  7.2084955257609884e-01  6.8876056181723422e-01  6.5841292752573544e-01  6.2883066712613844e-01  5.9926660767316009e-01  5.6965907481901845e-01  5.4086139333403738e-01  5.1460222024904301e-01  4.9317208164607329e-01  4.7890551589807273e-01  4.7358321393969033e-01  4.7794611086767841e-01  4.9148282795771170e-01  5.1315557026738035e-01  5.3699295606297370e-01  5.7173203767082803e-01  5.9254907055504680e-01  6.2734371270395894e-01  6.5486897411777301e-01  6.8682656297094946e-01  7.2130915840157772e-01  7.5831830396761268e-01  7.9665960798818158e-01  8.3457526464914022e-01  8.7021826912137978e-01  9.0201721600219775e-01  9.2892410839144068e-01  9.5051790748822984e-01  9.6696213030730804e-01  9.7885374005406478e-01  9.8702534172306011e-01  9.9235746068434705e-01  9.9562520627597928e-01  9.9733977294602694e-01  9.9741658237462183e-01  9.9458947756765359e-01  9.9157163146529648e-01  9.9644414299932638e-01  9.9563317397149986e-01  9.9245909464704940e-01  9.8699155889096812e-01  9.7842924026641531e-01  9.6572456578245691e-01  9.4780481212140733e-01  9.2377414008262348e-01  8.9315146132170242e-01  8.5615995211806928e-01  8.1405410642239895e-01  7.6926877651652470e-01  7.2492775553134081e-01  6.8363929046980687e-01  6.4655870864558584e-01  6.1300425797470559e-01  5.8086072118935650e-01  5.4787749586858003e-01  5.1263740588387263e-01  4.7495351013577547e-01  4.3607026496554618e-01  3.9866503839994744e-01  3.6648268914676535e-01  3.4354217638126461e-01  3.3310806383094194e-01  3.3683360046827704e-01  3.5444106890255583e-01  3.8170980994410092e-01  4.2328502245051530e-01  4.6295279399826544e-01  4.9506300731931246e-01  5.2275664766137242e-01  5.6516991085275736e-01  5.9945367503488001e-01  6.3724451365782253e-01  6.8026006333967326e-01  7.2663652317395822e-01  7.7417396408485040e-01  8.2028940550523777e-01  8.6255685825103734e-01  8.9914622619174600e-01  9.2907342677930493e-01  9.5222426104594993e-01  9.6918418870069145e-01  9.8096466020254436e-01  9.8872094565116941e-01  9.9350902305156041e-01  9.9602678583830107e-01  9.9607039814621579e-01  9.9157163146529648e-01  9.8736555890852140e-01  9.9481167589121156e-01  9.9384283803045426e-01  9.8945836002696763e-01  9.8189717990000835e-01  9.7012886350446248e-01  9.5281651569733750e-01  9.2866378384327586e-01  8.9672140695498381e-01  8.5673961503070883e-01  8.0961433083589163e-01  7.5787666703816281e-01  7.0578294208819259e-01  6.5807784876088360e-01  6.1768822625905440e-01  5.8484497528479062e-01  5.5684006667618624e-01  5.2913710455970220e-01  4.9801263862357248e-01  4.6130052654271853e-01  4.1822480438405485e-01  3.6975581566652060e-01  3.1921499749100807e-01  2.7224617510054128e-01  2.3559023243278465e-01  2.1524120779052078e-01  2.1474785219899886e-01  2.3420074617008468e-01  2.7068337367907980e-01  3.2397228820376550e-01  4.1317064477025622e-01  3.0370801096631528e-01  5.8115394394240294e-01  4.1128773196501650e-01  5.2302212441234597e-01  5.5887431181965463e-01  6.0310549241379452e-01  6.5337257978285990e-01  7.0783693501517952e-01  7.6322335648457074e-01  8.1598182371099592e-01  8.6308376816613597e-01  9.0256340007732117e-01  9.3370089850632765e-01  9.5686617005593166e-01  9.7315778270754427e-01  9.8399290071648815e-01  9.9073518831046425e-01  9.9428915940130391e-01  9.9424700599853477e-01  9.8736555890852140e-01  9.8177429297782892e-01  9.9269253949124614e-01  9.9162381009044842e-01  9.8579069265043440e-01  9.7571529837070903e-01  9.6013621200415056e-01  9.3743323163117454e-01  9.0615338033217396e-01  8.6546925465252744e-01  8.1569090309244496e-01  7.5887995184904011e-01  6.9950736340498476e-01  6.4449037535225551e-01  6.0042418868400083e-0