<?xml version="1.0"?>
<VTKFile type="UnstructuredGrid"  version="0.1"  >
<UnstructuredGrid>
<Piece  NumberOfPoints="2601" NumberOfCells="5000">
<Points>
<DataArray  type="Float64"  NumberOfComponents="3"  format="ascii">0 0 0  0.02 0 0  0.04 0 0  0.06 0 0  0.08 0 0  0.1 0 0  0.12 0 0  0.14 0 0  0.16 0 0  0.18 0 0  0.2 0 0  0.22 0 0  0.24 0 0  0.26 0 0  0.28 0 0  0.3 0 0  0.32 0 0  0.34 0 0  0.36 0 0  0.38 0 0  0.4 0 0  0.42 0 0  0.44 0 0  0.46 0 0  0.48 0 0  0.5 0 0  0.52 0 0  0.54 0 0  0.5600000000000001 0 0  0.58 0 0  0.6 0 0  0.62 0 0  0.64 0 0  0.66 0 0  0.68 0 0  0.7 0 0  0.72 0 0  0.74 0 0  0.76 0 0  0.78 0 0  0.8 0 0  0.82 0 0  0.84 0 0  0.86 0 0  0.88 0 0  0.9 0 0  0.92 0 0  0.9399999999999999 0 0  0.96 0 0  0.98 0 0  1 0 0  0 0.02 0  0.02 0.02 0  0.04 0.02 0  0.06 0.02 0  0.08 0.02 0  0.1 0.02 0  0.12 0.02 0  0.14 0.02 0  0.16 0.02 0  0.18 0.02 0  0.2 0.02 0  0.22 0.02 0  0.24 0.02 0  0.26 0.02 0  0.28 0.02 0  0.3 0.02 0  0.32 0.02 0  0.34 0.02 0  0.36 0.02 0  0.38 0.02 0  0.4 0.02 0  0.42 0.02 0  0.44 0.02 0  0.46 0.02 0  0.48 0.02 0  0.5 0.02 0  0.52 0.02 0  0.54 0.02 0  0.5600000000000001 0.02 0  0.58 0.02 0  0.6 0.02 0  0.62 0.02 0  0.64 0.02 0  0.66 0.02 0  0.68 0.02 0  0.7 0.02 0  0.72 0.02 0  0.74 0.02 0  0.76 0.02 0  0.78 0.02 0  0.8 0.02 0  0.82 0.02 0  0.84 0.02 0  0.86 0.02 0  0.88 0.02 0  0.9 0.02 0  0.92 0.02 0  0.9399999999999999 0.02 0  0.96 0.02 0  0.98 0.02 0  1 0.02 0  0 0.04 0  0.02 0.04 0  0.04 0.04 0  0.06 0.04 0  0.08 0.04 0  0.1 0.04 0  0.12 0.04 0  0.14 0.04 0  0.16 0.04 0  0.18 0.04 0  0.2 0.04 0  0.22 0.04 0  0.24 0.04 0  0.26 0.04 0  0.28 0.04 0  0.3 0.04 0  0.32 0.04 0  0.34 0.04 0  0.36 0.04 0  0.38 0.04 0  0.4 0.04 0  0.42 0.04 0  0.44 0.04 0  0.46 0.04 0  0.48 0.04 0  0.5 0.04 0  0.52 0.04 0  0.54 0.04 0  0.5600000000000001 0.04 0  0.58 0.04 0  0.6 0.04 0  0.62 0.04 0  0.64 0.04 0  0.66 0.04 0  0.68 0.04 0  0.7 0.04 0  0.72 0.04 0  0.74 0.04 0  0.76 0.04 0  0.78 0.04 0  0.8 0.04 0  0.82 0.04 0  0.84 0.04 0  0.86 0.04 0  0.88 0.04 0  0.9 0.04 0  0.92 0.04 0  0.9399999999999999 0.04 0  0.96 0.04 0  0.98 0.04 0  1 0.04 0  0 0.06 0  0.02 0.06 0  0.04 0.06 0  0.06 0.06 0  0.08 0.06 0  0.1 0.06 0  0.12 0.06 0  0.14 0.06 0  0.16 0.06 0  0.18 0.06 0  0.2 0.06 0  0.22 0.06 0  0.24 0.06 0  0.26 0.06 0  0.28 0.06 0  0.3 0.06 0  0.32 0.06 0  0.34 0.06 0  0.36 0.06 0  0.38 0.06 0  0.4 0.06 0  0.42 0.06 0  0.44 0.06 0  0.46 0.06 0  0.48 0.06 0  0.5 0.06 0  0.52 0.06 0  0.54 0.06 0  0.5600000000000001 0.06 0  0.58 0.06 0  0.6 0.06 0  0.62 0.06 0  0.64 0.06 0  0.66 0.06 0  0.68 0.06 0  0.7 0.06 0  0.72 0.06 0  0.74 0.06 0  0.76 0.06 0  0.78 0.06 0  0.8 0.06 0  0.82 0.06 0  0.84 0.06 0  0.86 0.06 0  0.88 0.06 0  0.9 0.06 0  0.92 0.06 0  0.9399999999999999 0.06 0  0.96 0.06 0  0.98 0.06 0  1 0.06 0  0 0.08 0  0.02 0.08 0  0.04 0.08 0  0.06 0.08 0  0.08 0.08 0  0.1 0.08 0  0.12 0.08 0  0.14 0.08 0  0.16 0.08 0  0.18 0.08 0  0.2 0.08 0  0.22 0.08 0  0.24 0.08 0  0.26 0.08 0  0.28 0.08 0  0.3 0.08 0  0.32 0.08 0  0.34 0.08 0  0.36 0.08 0  0.38 0.08 0  0.4 0.08 0  0.42 0.08 0  0.44 0.08 0  0.46 0.08 0  0.48 0.08 0  0.5 0.08 0  0.52 0.08 0  0.54 0.08 0  0.5600000000000001 0.08 0  0.58 0.08 0  0.6 0.08 0  0.62 0.08 0  0.64 0.08 0  0.66 0.08 0  0.68 0.08 0  0.7 0.08 0  0.72 0.08 0  0.74 0.08 0  0.76 0.08 0  0.78 0.08 0  0.8 0.08 0  0.82 0.08 0  0.84 0.08 0  0.86 0.08 0  0.88 0.08 0  0.9 0.08 0  0.92 0.08 0  0.9399999999999999 0.08 0  0.96 0.08 0  0.98 0.08 0  1 0.08 0  0 0.1 0  0.02 0.1 0  0.04 0.1 0  0.06 0.1 0  0.08 0.1 0  0.1 0.1 0  0.12 0.1 0  0.14 0.1 0  0.16 0.1 0  0.18 0.1 0  0.2 0.1 0  0.22 0.1 0  0.24 0.1 0  0.26 0.1 0  0.28 0.1 0  0.3 0.1 0  0.32 0.1 0  0.34 0.1 0  0.36 0.1 0  0.38 0.1 0  0.4 0.1 0  0.42 0.1 0  0.44 0.1 0  0.46 0.1 0  0.48 0.1 0  0.5 0.1 0  0.52 0.1 0  0.54 0.1 0  0.5600000000000001 0.1 0  0.58 0.1 0  0.6 0.1 0  0.62 0.1 0  0.64 0.1 0  0.66 0.1 0  0.68 0.1 0  0.7 0.1 0  0.72 0.1 0  0.74 0.1 0  0.76 0.1 0  0.78 0.1 0  0.8 0.1 0  0.82 0.1 0  0.84 0.1 0  0.86 0.1 0  0.88 0.1 0  0.9 0.1 0  0.92 0.1 0  0.9399999999999999 0.1 0  0.96 0.1 0  0.98 0.1 0  1 0.1 0  0 0.12 0  0.02 0.12 0  0.04 0.12 0  0.06 0.12 0  0.08 0.12 0  0.1 0.12 0  0.12 0.12 0  0.14 0.12 0  0.16 0.12 0  0.18 0.12 0  0.2 0.12 0  0.22 0.12 0  0.24 0.12 0  0.26 0.12 0  0.28 0.12 0  0.3 0.12 0  0.32 0.12 0  0.34 0.12 0  0.36 0.12 0  0.38 0.12 0  0.4 0.12 0  0.42 0.12 0  0.44 0.12 0  0.46 0.12 0  0.48 0.12 0  0.5 0.12 0  0.52 0.12 0  0.54 0.12 0  0.5600000000000001 0.12 0  0.58 0.12 0  0.6 0.12 0  0.62 0.12 0  0.64 0.12 0  0.66 0.12 0  0.68 0.12 0  0.7 0.12 0  0.72 0.12 0  0.74 0.12 0  0.76 0.12 0  0.78 0.12 0  0.8 0.12 0  0.82 0.12 0  0.84 0.12 0  0.86 0.12 0  0.88 0.12 0  0.9 0.12 0  0.92 0.12 0  0.9399999999999999 0.12 0  0.96 0.12 0  0.98 0.12 0  1 0.12 0  0 0.14 0  0.02 0.14 0  0.04 0.14 0  0.06 0.14 0  0.08 0.14 0  0.1 0.14 0  0.12 0.14 0  0.14 0.14 0  0.16 0.14 0  0.18 0.14 0  0.2 0.14 0  0.22 0.14 0  0.24 0.14 0  0.26 0.14 0  0.28 0.14 0  0.3 0.14 0  0.32 0.14 0  0.34 0.14 0  0.36 0.14 0  0.38 0.14 0  0.4 0.14 0  0.42 0.14 0  0.44 0.14 0  0.46 0.14 0  0.48 0.14 0  0.5 0.14 0  0.52 0.14 0  0.54 0.14 0  0.5600000000000001 0.14 0  0.58 0.14 0  0.6 0.14 0  0.62 0.14 0  0.64 0.14 0  0.66 0.14 0  0.68 0.14 0  0.7 0.14 0  0.72 0.14 0  0.74 0.14 0  0.76 0.14 0  0.78 0.14 0  0.8 0.14 0  0.82 0.14 0  0.84 0.14 0  0.86 0.14 0  0.88 0.14 0  0.9 0.14 0  0.92 0.14 0  0.9399999999999999 0.14 0  0.96 0.14 0  0.98 0.14 0  1 0.14 0  0 0.16 0  0.02 0.16 0  0.04 0.16 0  0.06 0.16 0  0.08 0.16 0  0.1 0.16 0  0.12 0.16 0  0.14 0.16 0  0.16 0.16 0  0.18 0.16 0  0.2 0.16 0  0.22 0.16 0  0.24 0.16 0  0.26 0.16 0  0.28 0.16 0  0.3 0.16 0  0.32 0.16 0  0.34 0.16 0  0.36 0.16 0  0.38 0.16 0  0.4 0.16 0  0.42 0.16 0  0.44 0.16 0  0.46 0.16 0  0.48 0.16 0  0.5 0.16 0  0.52 0.16 0  0.54 0.16 0  0.5600000000000001 0.16 0  0.58 0.16 0  0.6 0.16 0  0.62 0.16 0  0.64 0.16 0  0.66 0.16 0  0.68 0.16 0  0.7 0.16 0  0.72 0.16 0  0.74 0.16 0  0.76 0.16 0  0.78 0.16 0  0.8 0.16 0  0.82 0.16 0  0.84 0.16 0  0.86 0.16 0  0.88 0.16 0  0.9 0.16 0  0.92 0.16 0  0.9399999999999999 0.16 0  0.96 0.16 0  0.98 0.16 0  1 0.16 0  0 0.18 0  0.02 0.18 0  0.04 0.18 0  0.06 0.18 0  0.08 0.18 0  0.1 0.18 0  0.12 0.18 0  0.14 0.18 0  0.16 0.18 0  0.18 0.18 0  0.2 0.18 0  0.22 0.18 0  0.24 0.18 0  0.26 0.18 0  0.28 0.18 0  0.3 0.18 0  0.32 0.18 0  0.34 0.18 0  0.36 0.18 0  0.38 0.18 0  0.4 0.18 0  0.42 0.18 0  0.44 0.18 0  0.46 0.18 0  0.48 0.18 0  0.5 0.18 0  0.52 0.18 0  0.54 0.18 0  0.5600000000000001 0.18 0  0.58 0.18 0  0.6 0.18 0  0.62 0.18 0  0.64 0.18 0  0.66 0.18 0  0.68 0.18 0  0.7 0.18 0  0.72 0.18 0  0.74 0.18 0  0.76 0.18 0  0.78 0.18 0  0.8 0.18 0  0.82 0.18 0  0.84 0.18 0  0.86 0.18 0  0.88 0.18 0  0.9 0.18 0  0.92 0.18 0  0.9399999999999999 0.18 0  0.96 0.18 0  0.98 0.18 0  1 0.18 0  0 0.2 0  0.02 0.2 0  0.04 0.2 0  0.06 0.2 0  0.08 0.2 0  0.1 0.2 0  0.12 0.2 0  0.14 0.2 0  0.16 0.2 0  0.18 0.2 0  0.2 0.2 0  0.22 0.2 0  0.24 0.2 0  0.26 0.2 0  0.28 0.2 0  0.3 0.2 0  0.32 0.2 0  0.34 0.2 0  0.36 0.2 0  0.38 0.2 0  0.4 0.2 0  0.42 0.2 0  0.44 0.2 0  0.46 0.2 0  0.48 0.2 0  0.5 0.2 0  0.52 0.2 0  0.54 0.2 0  0.5600000000000001 0.2 0  0.58 0.2 0  0.6 0.2 0  0.62 0.2 0  0.64 0.2 0  0.66 0.2 0  0.68 0.2 0  0.7 0.2 0  0.72 0.2 0  0.74 0.2 0  0.76 0.2 0  0.78 0.2 0  0.8 0.2 0  0.82 0.2 0  0.84 0.2 0  0.86 0.2 0  0.88 0.2 0  0.9 0.2 0  0.92 0.2 0  0.9399999999999999 0.2 0  0.96 0.2 0  0.98 0.2 0  1 0.2 0  0 0.22 0  0.02 0.22 0  0.04 0.22 0  0.06 0.22 0  0.08 0.22 0  0.1 0.22 0  0.12 0.22 0  0.14 0.22 0  0.16 0.22 0  0.18 0.22 0  0.2 0.22 0  0.22 0.22 0  0.24 0.22 0  0.26 0.22 0  0.28 0.22 0  0.3 0.22 0  0.32 0.22 0  0.34 0.22 0  0.36 0.22 0  0.38 0.22 0  0.4 0.22 0  0.42 0.22 0  0.44 0.22 0  0.46 0.22 0  0.48 0.22 0  0.5 0.22 0  0.52 0.22 0  0.54 0.22 0  0.5600000000000001 0.22 0  0.58 0.22 0  0.6 0.22 0  0.62 0.22 0  0.64 0.22 0  0.66 0.22 0  0.68 0.22 0  0.7 0.22 0  0.72 0.22 0  0.74 0.22 0  0.76 0.22 0  0.78 0.22 0  0.8 0.22 0  0.82 0.22 0  0.84 0.22 0  0.86 0.22 0  0.88 0.22 0  0.9 0.22 0  0.92 0.22 0  0.9399999999999999 0.22 0  0.96 0.22 0  0.98 0.22 0  1 0.22 0  0 0.24 0  0.02 0.24 0  0.04 0.24 0  0.06 0.24 0  0.08 0.24 0  0.1 0.24 0  0.12 0.24 0  0.14 0.24 0  0.16 0.24 0  0.18 0.24 0  0.2 0.24 0  0.22 0.24 0  0.24 0.24 0  0.26 0.24 0  0.28 0.24 0  0.3 0.24 0  0.32 0.24 0  0.34 0.24 0  0.36 0.24 0  0.38 0.24 0  0.4 0.24 0  0.42 0.24 0  0.44 0.24 0  0.46 0.24 0  0.48 0.24 0  0.5 0.24 0  0.52 0.24 0  0.54 0.24 0  0.5600000000000001 0.24 0  0.58 0.24 0  0.6 0.24 0  0.62 0.24 0  0.64 0.24 0  0.66 0.24 0  0.68 0.24 0  0.7 0.24 0  0.72 0.24 0  0.74 0.24 0  0.76 0.24 0  0.78 0.24 0  0.8 0.24 0  0.82 0.24 0  0.84 0.24 0  0.86 0.24 0  0.88 0.24 0  0.9 0.24 0  0.92 0.24 0  0.9399999999999999 0.24 0  0.96 0.24 0  0.98 0.24 0  1 0.24 0  0 0.26 0  0.02 0.26 0  0.04 0.26 0  0.06 0.26 0  0.08 0.26 0  0.1 0.26 0  0.12 0.26 0  0.14 0.26 0  0.16 0.26 0  0.18 0.26 0  0.2 0.26 0  0.22 0.26 0  0.24 0.26 0  0.26 0.26 0  0.28 0.26 0  0.3 0.26 0  0.32 0.26 0  0.34 0.26 0  0.36 0.26 0  0.38 0.26 0  0.4 0.26 0  0.42 0.26 0  0.44 0.26 0  0.46 0.26 0  0.48 0.26 0  0.5 0.26 0  0.52 0.26 0  0.54 0.26 0  0.5600000000000001 0.26 0  0.58 0.26 0  0.6 0.26 0  0.62 0.26 0  0.64 0.26 0  0.66 0.26 0  0.68 0.26 0  0.7 0.26 0  0.72 0.26 0  0.74 0.26 0  0.76 0.26 0  0.78 0.26 0  0.8 0.26 0  0.82 0.26 0  0.84 0.26 0  0.86 0.26 0  0.88 0.26 0  0.9 0.26 0  0.92 0.26 0  0.9399999999999999 0.26 0  0.96 0.26 0  0.98 0.26 0  1 0.26 0  0 0.28 0  0.02 0.28 0  0.04 0.28 0  0.06 0.28 0  0.08 0.28 0  0.1 0.28 0  0.12 0.28 0  0.14 0.28 0  0.16 0.28 0  0.18 0.28 0  0.2 0.28 0  0.22 0.28 0  0.24 0.28 0  0.26 0.28 0  0.28 0.28 0  0.3 0.28 0  0.32 0.28 0  0.34 0.28 0  0.36 0.28 0  0.38 0.28 0  0.4 0.28 0  0.42 0.28 0  0.44 0.28 0  0.46 0.28 0  0.48 0.28 0  0.5 0.28 0  0.52 0.28 0  0.54 0.28 0  0.5600000000000001 0.28 0  0.58 0.28 0  0.6 0.28 0  0.62 0.28 0  0.64 0.28 0  0.66 0.28 0  0.68 0.28 0  0.7 0.28 0  0.72 0.28 0  0.74 0.28 0  0.76 0.28 0  0.78 0.28 0  0.8 0.28 0  0.82 0.28 0  0.84 0.28 0  0.86 0.28
[...]
<PointData  Scalars="q_f"> 
<DataArray  type="Float64"  Name="q_f"  format="ascii">9.9999887424286049e-01  9.9999860547939790e-01  9.9999746384125510e-01  9.9999514005416290e-01  9.9999089148564657e-01  9.9998351849053480e-01  9.9997127030542365e-01  9.9995177551161074e-01  9.9992206010324025e-01  9.9987871808363005e-01  9.9981828647257198e-01  9.9973783791732418e-01  9.9963573789217941e-01  9.9951243099508791e-01  9.9937104793324372e-01  9.9921759627916873e-01  9.9906054507030284e-01  9.9890974648865738e-01  9.9877483419589097e-01  9.9866343983225514e-01  9.9857969985363071e-01  9.9852351762501890e-01  9.9849087543960313e-01  9.9847519377909455e-01  9.9846940237989434e-01  9.9846813675703361e-01  9.9846940237998294e-01  9.9847519377898275e-01  9.9849087543952375e-01  9.9852351762504743e-01  9.9857969985351835e-01  9.9866343983228067e-01  9.9877483419584978e-01  9.9890974648841968e-01  9.9906054507030106e-01  9.9921759627925633e-01  9.9937104793326248e-01  9.9951243099506182e-01  9.9963573789212790e-01  9.9973783791726445e-01  9.9981828647272353e-01  9.9987871808377360e-01  9.9992206010325380e-01  9.9995177551163050e-01  9.9997127030524879e-01  9.9998351849052769e-01  9.9999089148575404e-01  9.9999514005412526e-01  9.9999746384129751e-01  9.9999860547938124e-01  9.9999887424286049e-01  9.9999849250895245e-01  9.9999889408579334e-01  9.9999812489909345e-01  9.9999655404644572e-01  9.9999381961174061e-01  9.9998929028349492e-01  9.9998209113106573e-01  9.9997110220773500e-01  9.9995499733604087e-01  9.9993234673316622e-01  9.9990179438653082e-01  9.9986230374213392e-01  9.9981344191379540e-01  9.9975564820258778e-01  9.9969041539905723e-01  9.9962031121013173e-01  9.9954878877126008e-01  9.9947978001270199e-01  9.9941712553316187e-01  9.9936395335764128e-01  9.9932215609850072e-01  9.9929211369293369e-01  9.9927275960415707e-01  9.9926200019591593e-01  9.9925739380505563e-01  9.9925691085391066e-01  9.9925956014388084e-01  9.9926569586101233e-01  9.9927690943363368e-01  9.9929553310076480e-01  9.9932389817028333e-01  9.9936356225979195e-01  9.9941472371220463e-01  9.9947597870747806e-01  9.9954447072300345e-01  9.9961636944242316e-01  9.9968753285751644e-01  9.9975417487909124e-01  9.9981338417574284e-01  9.9986340278428554e-01  9.9990364949855193e-01  9.9993453777017494e-01  9.9995717439593113e-01  9.9997303001111726e-01  9.9998365245148013e-01  9.9999046214938470e-01  9.9999463704271629e-01  9.9999707036891972e-01  9.9999836913603557e-01  9.9999885056883298e-01  9.9999849250895245e-01  9.9999665769367274e-01  9.9999773765135014e-01  9.9999630702782194e-01  9.9999330501972483e-01  9.9998817647364369e-01  9.9997986845554299e-01  9.9996697222963982e-01  9.9994778012815488e-01  9.9992040363137258e-01  9.9988298493788552e-01  9.9983399683249485e-01  9.9977259414350383e-01  9.9969895051397684e-01  9.9961449590115437e-01  9.9952197310212065e-01  9.9942526049807356e-01  9.9932895924601395e-01  9.9923780378778415e-01  9.9915600735400678e-01  9.9908668234518916e-01  9.9903146893898942e-01  9.9899046343030995e-01  9.9896246983018755e-01  9.9894552034473638e-01  9.9893754187095796e-01  9.9893700459769619e-01  9.9894338754248446e-01  9.9895733733346770e-01  9.9898047245359567e-01  9.9901487688080515e-01  9.9906241020776076e-01  9.9912401245999749e-01  9.9919918559854526e-01  9.9928578795615364e-01  9.9938019499057495e-01  9.9947778363329809e-01  9.9957361629396801e-01  9.9966315765638136e-01  9.9974286335924201e-01  9.9981052887091948e-01  9.9986536013147098e-01  9.9990779988687739e-01  9.9993919388514330e-01  9.9996139877784174e-01  9.9997642071217707e-01  9.9998614122381246e-01  9.9999214869582986e-01  9.9999565880541486e-01  9.9999747702635555e-01  9.9999792589695868e-01  9.9999665769367274e-01  9.9999217724384448e-01  9.9999493299087550e-01  9.9999183752300214e-01  9.9998522032394654e-01  9.9997391965698623e-01  9.9995564813769100e-01  9.9992735800747345e-01  9.9988538708524988e-01  9.9982573658639784e-01  9.9974454803521018e-01  9.9963875940241220e-01  9.9950685037802589e-01  9.9934952532161192e-01  9.9917015099846418e-01  9.9897478520597949e-01  9.9877170799509007e-01  9.9857048492656431e-01  9.9838071880457013e-01  9.9821074240175056e-01  9.9806653765408437e-01  9.9795112439206657e-01  9.9786455515553318e-01  9.9780451112030089e-01  9.9776735384283721e-01  9.9774938151375969e-01  9.9774799002850978e-01  9.9776245906749095e-01  9.9779416825934231e-01  9.9784618142830983e-01  9.9792228918951509e-01  9.9802573635296576e-01  9.9815794627842924e-01  9.9831756472270861e-01  9.9850007355551995e-01  9.9869808483198774e-01  9.9890225381572306e-01  9.9910259403394497e-01  9.9928988415460607e-01  9.9945685249247274e-01  9.9959890742927271e-01  9.9971431944881617e-01  9.9980390523209639e-01  9.9987037173897453e-01  9.9991752287380298e-01  9.9994951294310119e-01  9.9997026926726240e-01  9.9998312802246048e-01  9.9999065202488358e-01  9.9999452752590334e-01  9.9999535785122295e-01  9.9999217724384448e-01  9.9998216607130019e-01  9.9998894857912757e-01  9.9998246006287250e-01  9.9996827121285148e-01  9.9994400586103926e-01  9.9990478799012317e-01  9.9984411755444424e-01  9.9975421386461227e-01  9.9962663006701113e-01  9.9945328638345554e-01  9.9922787078986908e-01  9.9894740401874349e-01  9.9861363934095171e-01  9.9823391151529228e-01  9.9782110479829988e-01  9.9739258463891134e-01  9.9696819301495254e-01  9.9656766683740328e-01  9.9620801630017553e-01  9.9590143439722556e-01  9.9565418867716904e-01  9.9546671133976572e-01  9.9533482460098999e-01  9.9525178744403864e-01  9.9521068039955518e-01  9.9520658333627521e-01  9.9523805165258905e-01  9.9530754679365030e-01  9.9542070211308342e-01  9.9558456554948449e-01  9.9580520544986317e-01  9.9608523905731072e-01  9.9642189488576738e-01  9.9680612211997710e-01  9.9722302079073788e-01  9.9765353905002185e-01  9.9807705873457431e-01  9.9847426757741431e-01  9.9882966750021451e-01  9.9913320559687235e-01  9.9938078405193187e-01  9.9957371048524724e-01  9.9971739188609110e-01  9.9981969008915461e-01  9.9988933508475208e-01  9.9993467102312195e-01  9.9996284463132268e-01  9.9997937898128664e-01  9.9998790658945436e-01  9.9998963590516188e-01  9.9998216607130019e-01  9.9996079901542723e-01  9.9997675192483670e-01  9.9996372548168233e-01  9.9993448020221010e-01  9.9988439951825470e-01  9.9980351480481888e-01  9.9967853350301450e-01  9.9949361623247013e-01  9.9923168486869718e-01  9.9887657141603703e-01  9.9841588166996575e-01  9.9784413327728316e-01  9.9716548064450095e-01  9.9639525062455658e-01  9.9555966162010368e-01  9.9469348673073810e-01  9.9383595184744100e-01  9.9302566156774164e-01  9.9229564229023370e-01  9.9166957683275725e-01  9.9115999026259838e-01  9.9076865110999657e-01  9.9048893970972207e-01  9.9030954140010607e-01  9.9021861072667638e-01  9.9020752135910017e-01  9.9027343176869986e-01  9.9042012579729000e-01  9.9065690585176625e-01  9.9099569718289815e-01  9.9144691766498971e-01  9.9201500380081165e-01  9.9269466456564126e-01  9.9346887083325330e-01  9.9430924035020096e-01  9.9517890001763409e-01  9.9603725334286797e-01  9.9684556297236027e-01  9.9757205833164009e-01  9.9819546589075159e-01  9.9870635684815678e-01  9.9910632592515713e-01  9.9940554156041517e-01  9.9961949057333399e-01  9.9976573864439466e-01  9.9986130413394714e-01  9.9992090872822348e-01  9.9995601232703835e-01  9.9997415544984369e-01  9.9997764757777818e-01  9.9996079901542723e-01  9.9991702524357129e-01  9.9995287615840245e-01  9.9992785110825211e-01  9.9986995816957946e-01  9.9977070690282044e-01  9.9961059159055643e-01  9.9936360673468527e-01  9.9899894820089008e-01  9.9848369911060553e-01  9.9778712219881294e-01  9.9688626072052555e-01  9.9577192597923048e-01  9.9445369349025881e-01  9.9296241920380035e-01  9.9134916220785407e-01  9.8968023322967236e-01  9.8802914693105515e-01  9.8646717206173451e-01  9.8505459649450655e-01  9.8383458946406388e-01  9.8283075843476442e-01  9.8204848746584994e-01  9.8147927818249148e-01  9.8110682759663059e-01  9.8091348671932566e-01  9.8088590992048763e-01  9.8101896295052460e-01  9.8131722439952251e-01  9.8179370915748476e-01  9.8246583004875221e-01  9.8334913500972043e-01  9.8444996129809181e-01  9.8575866894525210e-01  9.8724530942929656e-01  9.8885924362172661e-01  9.9053331476763129e-01  9.9219193591163335e-01  9.9376129554480863e-01  9.9517926155887126e-01  9.9640271172048589e-01  9.9741086296214887e-01  9.9820436664431889e-01  9.9880103900222272e-01  9.9922975868065478e-01  9.9952415847925979e-01  9.9971735853916155e-01  9.9983834543610794e-01  9.9990987260194475e-01  9.9994691864622642e-01  9.9995361207516753e-01  9.9991702524357129e-01  9.9983092291620745e-01  9.9990796554713235e-01  9.9986199977562917e-01  9.9975194834386294e-01  9.9956309515433583e-01  9.9925893092561968e-01  9.9879081329659081e-01  9.9810156516731541e-01  9.9713079568893237e-01  9.9582313692731117e-01  9.9413871953930888e-01  9.9206402377869751e-01  9.8962045176797175e-01  9.8686790232972166e-01  9.8390152278180742e-01  9.8084154083638353e-01  9.7781811450270195e-01  9.7495470857523259e-01  9.7235394275371834e-01  9.7008894339063778e-01  9.6820136251526911e-01  9.6670522958707239e-01  9.6559448811041582e-01  9.6485180931060133e-01  9.6445684946527144e-01  9.6439294996250824e-01  9.6465184116611136e-01  9.6523601226810951e-01  9.6615822897576986e-01  9.6743760360405895e-01  9.6909200883668600e-01  9.7112760444828250e-01  9.7352757063862438e-01  9.7624321708237960e-01  9.7919077376146546e-01  9.8225599298243060e-01  9.8530644954125945e-01  9.8820895116092966e-01  9.9084778372634275e-01  9.9313930159631802e-01  9.9503965987900977e-01  9.9654467792992296e-01  9.9768303704208749e-01  9.9850549318494330e-01  9.9907318161987924e-01  9.9944751123351794e-01  9.9968297259145300e-01  9.9982275321267611e-01  9.9989529503708918e-01  9.9990741185134890e-01  9.9983092291620745e-01  9.9966836250893520e-01  9.9982680019455461e-01  9.9974615799736655e-01  9.9954527702443885e-01  9.9920027998582817e-01  9.9864583419781006e-01  9.9779500283216882e-01  9.9654659049199346e-01  9.9479531484168160e-01  9.9244699328376229e-01  9.8943727204542908e-01  9.8575026059726445e-01  9.8143215707081999e-01  9.7659514224838972e-01  9.7140883276435097e-01  9.6608005179061285e-01  9.6082544613435950e-01  9.5584399307223000e-01  9.5129645464052270e-01  9.4729615632767561e-01  9.4391122216760381e-01  9.4117456259023202e-01  9.3909622595803344e-01  9.3767369243047149e-01  9.3689834717743148e-01  9.3675899420429520e-01  9.3724445308594395e-01  9.3834662437955019e-01  9.4006354633384959e-01  9.4240010771488447e-01  9.4536346607665511e-01  9.4895157110509432e-01  9.5313626207661328e-01  9.5784586630498980e-01  9.6295418385437748e-01  9.6828181077551667e-01  9.7361195944277301e-01  9.7871783988418570e-01  9.8339452673175154e-01  9.8748679733758704e-01  9.9090609634911497e-01  9.9363359940449325e-01  9.9571061654854198e-01  9.9722071476268204e-01  9.9826910806176838e-01  9.9896411390786322e-01  9.9940344613475884e-01  9.9966542534007985e-01  9.9980164902578639e-01  9.9982227742596164e-01  9.9966836250893520e-01  9.9937389691894352e-01  9.9968588862234620e-01  9.9955092353346120e-01  9.9919883708390977e-01  9.9859375677045292e-01  9.9762397449221218e-01  9.9614112121343312e-01  9.9397462289317950e-01  9.9095046375622697e-01  9.8691809799337060e-01  9.8178244351133459e-01  9.7553410756975245e-01  9.6826909251787019e-01  9.6019019170184416e-01  9.5158658791626505e-01  9.4279488631434338e-01  9.3415156208901595e-01  9.2595052235852715e-01  9.1841791936789285e-01  9.1170954934019821e-01  9.0592696632598935e-01  9.0114129319273695e-01  8.9741222308625934e-01  8.9479438434792546e-01  8.9333119872902955e-01  8.9304318777553782e-01  8.9392005716076683e-01  8.9592308764007522e-01  8.9899808321604879e-01  9.0309243253343408e-01  9.0816600118648927e-01  9.1418689959135946e-01  9.2110975677481122e-01  9.2884322199238634e-01  9.3722039831266868e-01  9.4598682540589363e-01  9.5481462341877799e-01  9.6334131435679460e-01  9.7122244468652963e-01  9.7818250595455358e-01  9.8405020901746565e-01  9.8877046218316811e-01  9.9239329928767295e-01  9.9504635568355715e-01  9.9690042181002958e-01  9.9813691642408742e-01  9.9892281854724807e-01  9.9939375484216975e-01  9.9963910420327495e-01  9.9967193052490844e-01  9.9937389691894352e-01  9.9886236984865473e-01  9.9945093223495929e-01  9.9923577952238296e-01  9.9864319944311231e-01  9.9762426059468312e-01  9.9599658638899180e-01  9.9351857799907950e-01  9.8991681514032293e-01  9.8491945750735888e-01  9.7830209382106037e-01  9.6993993450252725e-01  9.5985390013841954e-01  9.4823560714240229e-01  9.3543907160049145e-01  9.2193568690036209e-01  9.0824160570137491e-01  8.9483834120138106e-01  8.8211238404301673e-01  8.7033391794625159e-01  8.5967909445956026e-01  8.5028128913162071e-01  8.4228386007281975e-01  8.3586733161672255e-01  8.3123768259556441e-01  8.2858220282970130e-01  8.2801508546871261e-01  8.2953947517886917e-01  8.3304493392080359e-01  8.3834313709598118e-01  8.4522679193287920e-01  8.5352478748640992e-01  8.6312647559139510e-01  8.7396118612055551e-01  8.8594028441009176e-01  8.9888788462257596e-01  9.1249294368610334e-01  9.2630662306067213e-01  9.3978953457643755e-01  9.5239355985981811e-01  9.6365113467287533e-01  9.7324490488923598e-01  9.8104045682841823e-01  9.8707883148695774e-01  9.9153778348257304e-01  9.9467734506526218e-01  9.9678531698057138e-01  9.9813327506870320e-01  9.9894533287549914e-01  9.9936922946414086e-01  9.9941757636008499e-01  9.9886236984865473e-01  9.9801068306229801e-01  9.9907476305116960e-01  9.9874870829805074e-01  9.9779089064725079e-01  9.9614316600092856e-01  9.9352145363075750e-01  9.8955072897350160e-01  9.8381500890736950e-01  9.7591473338341406e-01  9.6554189574678506e-01  9.5256130871262079e-01  9.3707618668584769e-01  9.1945329158789801e-01  9.0028964505900400e-01  8.8031968776172342e-01  8.6028448727486340e-01  8.4080419267717998e-01  8.2230069925205140e-01  8.0500249531987966e-01  7.8903050711132938e-01  7.7452625591173285e-01  7.6176118663486636e-01  7.5117223633176677e-01  7.4330194332220934e-01  7.3866504606771843e-01  7.3759640184392949e-01  7.4014339147786934e-01  7.4604822978464813e-01  7.5482976680508063e-01  7.6593364348945325e-01  7.7888968125721414e-01  7.9341021778268006e-01  8.0938800037748226e-01  8.2679755920354303e-01  8.4554776017765854e-01  8.6535349360495395e-01  8.8568248362444735e-01  9.0579777880162293e-01  9.2487674174304757e-01  9.4216104245953325e-01  9.5708746085839114e-01  9.6936359639601799e-01  9.7897637694601303e-01  9.8614378336217734e-01  9.9123387705971633e-01  9.9467758674837181e-01  9.9689461675818281e-01  9.9823806331838771e-01  9.9894077791192493e-01  9.9900553770841483e-01  9.9801068306229801e-01  9.9665240279678291e-01  9.9849667450443191e-01  9.9802814742682366e-01  9.9654102897025421e-01  9.9398169081940979e-01  9.8992833198064900e-01  9.8382662584476932e-01  9.7507742180155610e-01  9.6313187982258064e-01  9.4760994600881154e-01  9.2842105003606767e-01  9.0585013549051630e-01  8.8056965156522282e-01  8.5355247554595959e-01  8.2589183522388976e-01  7.9857392458468901e-01  7.7228074830340399e-01  7.4730568835123568e-01  7.2363065586382902e-01  7.0114795936017749e-01  6.7993982255910057e-01  6.6049107084715142e-01  6.4373034534344720e-01  6.3086617829200098e-01  6.2307197481680721e-01  6.2113748521893897e-01  6.2521908003553095e-01  6.3478549325635714e-01  6.4878415077734453e-01  6.6596924491188247e-01  6.8526654016027366e-01  7.0603185362071574e-01  7.2810453065446479e-01  7.5164734689386281e-01  7.7685638039756244e-01  8.0367291980625088e-01  8.3161481867355636e-01  8.5978210825955070e-01  8.8701696429516141e-01  9.1214488394717175e-01  9.3420845400827035e-01  9.5262437662256583e-01  9.6723304286119083e-01  9.7824943201404402e-01  9.8615053685861087e-01  9.9154225233507076e-01  9.9503961491419513e-01  9.9717253180235654e-01  9.9829062427464843e-01  9.9836675266920505e-01  9.9665240279678291e-01  9.9457910613290867e-01  9.9764429326531934e-01  9.9700816126263325e-01  9.9478960271576677e-01  9.9096986702217416e-01  9.8495259092202814e-01  9.7595856713071105e-01  9.6317366602542498e-01  9.4590105126062141e-01  9.2374108977536895e-01  8.9676223139243605e-01  8.6560270322602317e-01  8.3144260772135770e-01  7.9581389131635727e-01  7.6027040040245208e-01  7.2600689857908973e-01  6.9356596123266212e-01  6.6277215831131331e-01  6.3296483421864780e-01  6.0347840314288914e-01  5.7419457889825576e-01  5.4593180680629705e-01  5.2048452574627935e-01  5.0026268263410101e-01  4.8764447259011218e-01  4.8426959417806376e-01  4.9052586061847597e-01  5.0541776288535922e-01  5.2687448960610417e-01  5.5239505401331124e-01  5.7979465012220210e-01  6.0777051501487245e-01  6.3608058322790784e-01  6.6529635956818400e-01  6.9627015356931921e-01  7.2955800495440704e-01  7.6502410298274104e-01  8.0174650261876546e-01  8.3821137854590977e-01  8.7268356975621619e-01  9.0360443093032605e-01  9.2989135176580895e-01  9.5107305029213285e-01  9.6726080555667604e-01  9.7900387730815863e-01  9.8709589428507583e-01  9.9238902416591812e-01  9.9563989733818603e-01  9.9734808406541120e-01  9.9741964259448035e-01  9.9457910613290867e-01  9.9155300548317893e-01  9.9643912790153089e-01  9.9562718173613796e-01  9.9244553794106549e-01  9.8696503603870467e-01  9.7838375758035379e-01  9.6566163858129817e-01  9.4776019975141912e-01  9.2387757274471116e-01  8.9371178741210211e-01  8.5769122232303519e-01  8.1707759468045416e-01  7.7385199568734309e-01  7.3034497915516161e-01  6.8866394583879609e-01  6.5007908392310354e-01  6.1460486110205181e-01  5.8100291870807108e-01  5.4730484031182014e-01  5.1173880186716125e-01  4.7373555044740567e-01  4.3460113200859080e-01  3.9754059878803139e-01  3.6696321202808030e-01  3.4727948574011958e-01  3.4159327623015645e-01  3.5073651679206275e-01  3.7298955109628340e-01  4.0460708619558361e-01  4.4098503584378246e-01  4.7805305505552187e-01  5.1337823509532143e-01  5.4658581752066859e-01  5.7899837358174422e-01  6.1271805669914203e-01  6.4956770155094290e-01  6.9029417278082139e-01  7.3426601180110163e-01  7.7967539464573987e-01  8.2408088823473324e-01  8.6505264547631766e-01  9.0070510364295697e-01  9.2999003987458495e-01  9.5272845429023489e-01  9.6944268438280723e-01  9.8108833509977145e-01  9.8877736517257708e-01  9.9353622405163722e-01  9.9604340282835380e-01  9.9607776486508981e-01  9.9155300548317893e-01  9.8733472190687588e-01  9.9480653146541453e-01  9.9383977285426262e-01  9.8945094327937311e-01  9.8188639509075681e-01  9.7012194370364047e-01  9.5284172234392528e-01  9.2881135629990541e-01  8.9722812165187371e-01  8.5809258983053371e-01  8.1250445890809164e-01  7.6273898533632511e-01  7.1197595053952434e-01  6.6363925574674232e-01  6.2045407706748246e-01  5.8349671550221738e-01  5.5162186403119995e-01  5.2161662769990202e-01  4.8920841490245220e-01  4.5070020184181869e-01  4.0467737709671642e-01  3.5310740111486649e-01  3.0133006453832023e-01  2.5684429739660430e-01  2.2724757486327396e-01  2.1799124266615882e-01  2.3069307223379862e-01  2.6259416586681639e-01  3.0739251841636195e-01  3.5720725067638998e-01  4.0498710341563438e-01  4.4648379612962608e-01  4.8109413765302134e-01  5.1136553914006611e-01  5.4150797277015494e-01  5.7558910237283456e-01  6.1608725812411258e-01  6.6321344073564659e-01  7.1506248169450870e-01  7.6836899960727956e-01  8.1950528274151768e-01  8.6537223402697427e-01  9.0395670379123727e-01  9.3449030750334428e-01  9.5728110112926401e-01  9.7336065749110245e-01  9.8408754124817965e-01  9.9078253768783897e-01  9.9432028848850862e-01  9.9426298278483771e-01  9.8733472190687588e-01  9.8172749058901065e-01  9.9268995443965402e-01  9.9162978607480701e-01  9.8580200367322801e-01  9.7574882154461540e-01  9.6022969790269574e-01  9.3766987315234496e-01  9.0671812643427974e-01  8.6675007481448141e-01  8.1837464094237289e-01  7.6379530317895450e-01  7.0681597276343555e-01  6.5231448147883819e-01  6.0514601071409080e-0