<?xml version="1.0"?>
<VTKFile type="UnstructuredGrid"  version="0.1"  >
<UnstructuredGrid>
<Piece  NumberOfPoints="2601" NumberOfCells="5000">
<Points>
<DataArray  type="Float64"  NumberOfComponents="3"  format="ascii">0 0 0  0.02 0 0  0.04 0 0  0.06 0 0  0.08 0 0  0.1 0 0  0.12 0 0  0.14 0 0  0.16 0 0  0.18 0 0  0.2 0 0  0.22 0 0  0.24 0 0  0.26 0 0  0.28 0 0  0.3 0 0  0.32 0 0  0.34 0 0  0.36 0 0  0.38 0 0  0.4 0 0  0.42 0 0  0.44 0 0  0.46 0 0  0.48 0 0  0.5 0 0  0.52 0 0  0.54 0 0  0.5600000000000001 0 0  0.58 0 0  0.6 0 0  0.62 0 0  0.64 0 0  0.66 0 0  0.68 0 0  0.7 0 0  0.72 0 0  0.74 0 0  0.76 0 0  0.78 0 0  0.8 0 0  0.82 0 0  0.84 0 0  0.86 0 0  0.88 0 0  0.9 0 0  0.92 0 0  0.9399999999999999 0 0  0.96 0 0  0.98 0 0  1 0 0  0 0.02 0  0.02 0.02 0  0.04 0.02 0  0.06 0.02 0  0.08 0.02 0  0.1 0.02 0  0.12 0.02 0  0.14 0.02 0  0.16 0.02 0  0.18 0.02 0  0.2 0.02 0  0.22 0.02 0  0.24 0.02 0  0.26 0.02 0  0.28 0.02 0  0.3 0.02 0  0.32 0.02 0  0.34 0.02 0  0.36 0.02 0  0.38 0.02 0  0.4 0.02 0  0.42 0.02 0  0.44 0.02 0  0.46 0.02 0  0.48 0.02 0  0.5 0.02 0  0.52 0.02 0  0.54 0.02 0  0.5600000000000001 0.02 0  0.58 0.02 0  0.6 0.02 0  0.62 0.02 0  0.64 0.02 0  0.66 0.02 0  0.68 0.02 0  0.7 0.02 0  0.72 0.02 0  0.74 0.02 0  0.76 0.02 0  0.78 0.02 0  0.8 0.02 0  0.82 0.02 0  0.84 0.02 0  0.86 0.02 0  0.88 0.02 0  0.9 0.02 0  0.92 0.02 0  0.9399999999999999 0.02 0  0.96 0.02 0  0.98 0.02 0  1 0.02 0  0 0.04 0  0.02 0.04 0  0.04 0.04 0  0.06 0.04 0  0.08 0.04 0  0.1 0.04 0  0.12 0.04 0  0.14 0.04 0  0.16 0.04 0  0.18 0.04 0  0.2 0.04 0  0.22 0.04 0  0.24 0.04 0  0.26 0.04 0  0.28 0.04 0  0.3 0.04 0  0.32 0.04 0  0.34 0.04 0  0.36 0.04 0  0.38 0.04 0  0.4 0.04 0  0.42 0.04 0  0.44 0.04 0  0.46 0.04 0  0.48 0.04 0  0.5 0.04 0  0.52 0.04 0  0.54 0.04 0  0.5600000000000001 0.04 0  0.58 0.04 0  0.6 0.04 0  0.62 0.04 0  0.64 0.04 0  0.66 0.04 0  0.68 0.04 0  0.7 0.04 0  0.72 0.04 0  0.74 0.04 0  0.76 0.04 0  0.78 0.04 0  0.8 0.04 0  0.82 0.04 0  0.84 0.04 0  0.86 0.04 0  0.88 0.04 0  0.9 0.04 0  0.92 0.04 0  0.9399999999999999 0.04 0  0.96 0.04 0  0.98 0.04 0  1 0.04 0  0 0.06 0  0.02 0.06 0  0.04 0.06 0  0.06 0.06 0  0.08 0.06 0  0.1 0.06 0  0.12 0.06 0  0.14 0.06 0  0.16 0.06 0  0.18 0.06 0  0.2 0.06 0  0.22 0.06 0  0.24 0.06 0  0.26 0.06 0  0.28 0.06 0  0.3 0.06 0  0.32 0.06 0  0.34 0.06 0  0.36 0.06 0  0.38 0.06 0  0.4 0.06 0  0.42 0.06 0  0.44 0.06 0  0.46 0.06 0  0.48 0.06 0  0.5 0.06 0  0.52 0.06 0  0.54 0.06 0  0.5600000000000001 0.06 0  0.58 0.06 0  0.6 0.06 0  0.62 0.06 0  0.64 0.06 0  0.66 0.06 0  0.68 0.06 0  0.7 0.06 0  0.72 0.06 0  0.74 0.06 0  0.76 0.06 0  0.78 0.06 0  0.8 0.06 0  0.82 0.06 0  0.84 0.06 0  0.86 0.06 0  0.88 0.06 0  0.9 0.06 0  0.92 0.06 0  0.9399999999999999 0.06 0  0.96 0.06 0  0.98 0.06 0  1 0.06 0  0 0.08 0  0.02 0.08 0  0.04 0.08 0  0.06 0.08 0  0.08 0.08 0  0.1 0.08 0  0.12 0.08 0  0.14 0.08 0  0.16 0.08 0  0.18 0.08 0  0.2 0.08 0  0.22 0.08 0  0.24 0.08 0  0.26 0.08 0  0.28 0.08 0  0.3 0.08 0  0.32 0.08 0  0.34 0.08 0  0.36 0.08 0  0.38 0.08 0  0.4 0.08 0  0.42 0.08 0  0.44 0.08 0  0.46 0.08 0  0.48 0.08 0  0.5 0.08 0  0.52 0.08 0  0.54 0.08 0  0.5600000000000001 0.08 0  0.58 0.08 0  0.6 0.08 0  0.62 0.08 0  0.64 0.08 0  0.66 0.08 0  0.68 0.08 0  0.7 0.08 0  0.72 0.08 0  0.74 0.08 0  0.76 0.08 0  0.78 0.08 0  0.8 0.08 0  0.82 0.08 0  0.84 0.08 0  0.86 0.08 0  0.88 0.08 0  0.9 0.08 0  0.92 0.08 0  0.9399999999999999 0.08 0  0.96 0.08 0  0.98 0.08 0  1 0.08 0  0 0.1 0  0.02 0.1 0  0.04 0.1 0  0.06 0.1 0  0.08 0.1 0  0.1 0.1 0  0.12 0.1 0  0.14 0.1 0  0.16 0.1 0  0.18 0.1 0  0.2 0.1 0  0.22 0.1 0  0.24 0.1 0  0.26 0.1 0  0.28 0.1 0  0.3 0.1 0  0.32 0.1 0  0.34 0.1 0  0.36 0.1 0  0.38 0.1 0  0.4 0.1 0  0.42 0.1 0  0.44 0.1 0  0.46 0.1 0  0.48 0.1 0  0.5 0.1 0  0.52 0.1 0  0.54 0.1 0  0.5600000000000001 0.1 0  0.58 0.1 0  0.6 0.1 0  0.62 0.1 0  0.64 0.1 0  0.66 0.1 0  0.68 0.1 0  0.7 0.1 0  0.72 0.1 0  0.74 0.1 0  0.76 0.1 0  0.78 0.1 0  0.8 0.1 0  0.82 0.1 0  0.84 0.1 0  0.86 0.1 0  0.88 0.1 0  0.9 0.1 0  0.92 0.1 0  0.9399999999999999 0.1 0  0.96 0.1 0  0.98 0.1 0  1 0.1 0  0 0.12 0  0.02 0.12 0  0.04 0.12 0  0.06 0.12 0  0.08 0.12 0  0.1 0.12 0  0.12 0.12 0  0.14 0.12 0  0.16 0.12 0  0.18 0.12 0  0.2 0.12 0  0.22 0.12 0  0.24 0.12 0  0.26 0.12 0  0.28 0.12 0  0.3 0.12 0  0.32 0.12 0  0.34 0.12 0  0.36 0.12 0  0.38 0.12 0  0.4 0.12 0  0.42 0.12 0  0.44 0.12 0  0.46 0.12 0  0.48 0.12 0  0.5 0.12 0  0.52 0.12 0  0.54 0.12 0  0.5600000000000001 0.12 0  0.58 0.12 0  0.6 0.12 0  0.62 0.12 0  0.64 0.12 0  0.66 0.12 0  0.68 0.12 0  0.7 0.12 0  0.72 0.12 0  0.74 0.12 0  0.76 0.12 0  0.78 0.12 0  0.8 0.12 0  0.82 0.12 0  0.84 0.12 0  0.86 0.12 0  0.88 0.12 0  0.9 0.12 0  0.92 0.12 0  0.9399999999999999 0.12 0  0.96 0.12 0  0.98 0.12 0  1 0.12 0  0 0.14 0  0.02 0.14 0  0.04 0.14 0  0.06 0.14 0  0.08 0.14 0  0.1 0.14 0  0.12 0.14 0  0.14 0.14 0  0.16 0.14 0  0.18 0.14 0  0.2 0.14 0  0.22 0.14 0  0.24 0.14 0  0.26 0.14 0  0.28 0.14 0  0.3 0.14 0  0.32 0.14 0  0.34 0.14 0  0.36 0.14 0  0.38 0.14 0  0.4 0.14 0  0.42 0.14 0  0.44 0.14 0  0.46 0.14 0  0.48 0.14 0  0.5 0.14 0  0.52 0.14 0  0.54 0.14 0  0.5600000000000001 0.14 0  0.58 0.14 0  0.6 0.14 0  0.62 0.14 0  0.64 0.14 0  0.66 0.14 0  0.68 0.14 0  0.7 0.14 0  0.72 0.14 0  0.74 0.14 0  0.76 0.14 0  0.78 0.14 0  0.8 0.14 0  0.82 0.14 0  0.84 0.14 0  0.86 0.14 0  0.88 0.14 0  0.9 0.14 0  0.92 0.14 0  0.9399999999999999 0.14 0  0.96 0.14 0  0.98 0.14 0  1 0.14 0  0 0.16 0  0.02 0.16 0  0.04 0.16 0  0.06 0.16 0  0.08 0.16 0  0.1 0.16 0  0.12 0.16 0  0.14 0.16 0  0.16 0.16 0  0.18 0.16 0  0.2 0.16 0  0.22 0.16 0  0.24 0.16 0  0.26 0.16 0  0.28 0.16 0  0.3 0.16 0  0.32 0.16 0  0.34 0.16 0  0.36 0.16 0  0.38 0.16 0  0.4 0.16 0  0.42 0.16 0  0.44 0.16 0  0.46 0.16 0  0.48 0.16 0  0.5 0.16 0  0.52 0.16 0  0.54 0.16 0  0.5600000000000001 0.16 0  0.58 0.16 0  0.6 0.16 0  0.62 0.16 0  0.64 0.16 0  0.66 0.16 0  0.68 0.16 0  0.7 0.16 0  0.72 0.16 0  0.74 0.16 0  0.76 0.16 0  0.78 0.16 0  0.8 0.16 0  0.82 0.16 0  0.84 0.16 0  0.86 0.16 0  0.88 0.16 0  0.9 0.16 0  0.92 0.16 0  0.9399999999999999 0.16 0  0.96 0.16 0  0.98 0.16 0  1 0.16 0  0 0.18 0  0.02 0.18 0  0.04 0.18 0  0.06 0.18 0  0.08 0.18 0  0.1 0.18 0  0.12 0.18 0  0.14 0.18 0  0.16 0.18 0  0.18 0.18 0  0.2 0.18 0  0.22 0.18 0  0.24 0.18 0  0.26 0.18 0  0.28 0.18 0  0.3 0.18 0  0.32 0.18 0  0.34 0.18 0  0.36 0.18 0  0.38 0.18 0  0.4 0.18 0  0.42 0.18 0  0.44 0.18 0  0.46 0.18 0  0.48 0.18 0  0.5 0.18 0  0.52 0.18 0  0.54 0.18 0  0.5600000000000001 0.18 0  0.58 0.18 0  0.6 0.18 0  0.62 0.18 0  0.64 0.18 0  0.66 0.18 0  0.68 0.18 0  0.7 0.18 0  0.72 0.18 0  0.74 0.18 0  0.76 0.18 0  0.78 0.18 0  0.8 0.18 0  0.82 0.18 0  0.84 0.18 0  0.86 0.18 0  0.88 0.18 0  0.9 0.18 0  0.92 0.18 0  0.9399999999999999 0.18 0  0.96 0.18 0  0.98 0.18 0  1 0.18 0  0 0.2 0  0.02 0.2 0  0.04 0.2 0  0.06 0.2 0  0.08 0.2 0  0.1 0.2 0  0.12 0.2 0  0.14 0.2 0  0.16 0.2 0  0.18 0.2 0  0.2 0.2 0  0.22 0.2 0  0.24 0.2 0  0.26 0.2 0  0.28 0.2 0  0.3 0.2 0  0.32 0.2 0  0.34 0.2 0  0.36 0.2 0  0.38 0.2 0  0.4 0.2 0  0.42 0.2 0  0.44 0.2 0  0.46 0.2 0  0.48 0.2 0  0.5 0.2 0  0.52 0.2 0  0.54 0.2 0  0.5600000000000001 0.2 0  0.58 0.2 0  0.6 0.2 0  0.62 0.2 0  0.64 0.2 0  0.66 0.2 0  0.68 0.2 0  0.7 0.2 0  0.72 0.2 0  0.74 0.2 0  0.76 0.2 0  0.78 0.2 0  0.8 0.2 0  0.82 0.2 0  0.84 0.2 0  0.86 0.2 0  0.88 0.2 0  0.9 0.2 0  0.92 0.2 0  0.9399999999999999 0.2 0  0.96 0.2 0  0.98 0.2 0  1 0.2 0  0 0.22 0  0.02 0.22 0  0.04 0.22 0  0.06 0.22 0  0.08 0.22 0  0.1 0.22 0  0.12 0.22 0  0.14 0.22 0  0.16 0.22 0  0.18 0.22 0  0.2 0.22 0  0.22 0.22 0  0.24 0.22 0  0.26 0.22 0  0.28 0.22 0  0.3 0.22 0  0.32 0.22 0  0.34 0.22 0  0.36 0.22 0  0.38 0.22 0  0.4 0.22 0  0.42 0.22 0  0.44 0.22 0  0.46 0.22 0  0.48 0.22 0  0.5 0.22 0  0.52 0.22 0  0.54 0.22 0  0.5600000000000001 0.22 0  0.58 0.22 0  0.6 0.22 0  0.62 0.22 0  0.64 0.22 0  0.66 0.22 0  0.68 0.22 0  0.7 0.22 0  0.72 0.22 0  0.74 0.22 0  0.76 0.22 0  0.78 0.22 0  0.8 0.22 0  0.82 0.22 0  0.84 0.22 0  0.86 0.22 0  0.88 0.22 0  0.9 0.22 0  0.92 0.22 0  0.9399999999999999 0.22 0  0.96 0.22 0  0.98 0.22 0  1 0.22 0  0 0.24 0  0.02 0.24 0  0.04 0.24 0  0.06 0.24 0  0.08 0.24 0  0.1 0.24 0  0.12 0.24 0  0.14 0.24 0  0.16 0.24 0  0.18 0.24 0  0.2 0.24 0  0.22 0.24 0  0.24 0.24 0  0.26 0.24 0  0.28 0.24 0  0.3 0.24 0  0.32 0.24 0  0.34 0.24 0  0.36 0.24 0  0.38 0.24 0  0.4 0.24 0  0.42 0.24 0  0.44 0.24 0  0.46 0.24 0  0.48 0.24 0  0.5 0.24 0  0.52 0.24 0  0.54 0.24 0  0.5600000000000001 0.24 0  0.58 0.24 0  0.6 0.24 0  0.62 0.24 0  0.64 0.24 0  0.66 0.24 0  0.68 0.24 0  0.7 0.24 0  0.72 0.24 0  0.74 0.24 0  0.76 0.24 0  0.78 0.24 0  0.8 0.24 0  0.82 0.24 0  0.84 0.24 0  0.86 0.24 0  0.88 0.24 0  0.9 0.24 0  0.92 0.24 0  0.9399999999999999 0.24 0  0.96 0.24 0  0.98 0.24 0  1 0.24 0  0 0.26 0  0.02 0.26 0  0.04 0.26 0  0.06 0.26 0  0.08 0.26 0  0.1 0.26 0  0.12 0.26 0  0.14 0.26 0  0.16 0.26 0  0.18 0.26 0  0.2 0.26 0  0.22 0.26 0  0.24 0.26 0  0.26 0.26 0  0.28 0.26 0  0.3 0.26 0  0.32 0.26 0  0.34 0.26 0  0.36 0.26 0  0.38 0.26 0  0.4 0.26 0  0.42 0.26 0  0.44 0.26 0  0.46 0.26 0  0.48 0.26 0  0.5 0.26 0  0.52 0.26 0  0.54 0.26 0  0.5600000000000001 0.26 0  0.58 0.26 0  0.6 0.26 0  0.62 0.26 0  0.64 0.26 0  0.66 0.26 0  0.68 0.26 0  0.7 0.26 0  0.72 0.26 0  0.74 0.26 0  0.76 0.26 0  0.78 0.26 0  0.8 0.26 0  0.82 0.26 0  0.84 0.26 0  0.86 0.26 0  0.88 0.26 0  0.9 0.26 0  0.92 0.26 0  0.9399999999999999 0.26 0  0.96 0.26 0  0.98 0.26 0  1 0.26 0  0 0.28 0  0.02 0.28 0  0.04 0.28 0  0.06 0.28 0  0.08 0.28 0  0.1 0.28 0  0.12 0.28 0  0.14 0.28 0  0.16 0.28 0  0.18 0.28 0  0.2 0.28 0  0.22 0.28 0  0.24 0.28 0  0.26 0.28 0  0.28 0.28 0  0.3 0.28 0  0.32 0.28 0  0.34 0.28 0  0.36 0.28 0  0.38 0.28 0  0.4 0.28 0  0.42 0.28 0  0.44 0.28 0  0.46 0.28 0  0.48 0.28 0  0.5 0.28 0  0.52 0.28 0  0.54 0.28 0  0.5600000000000001 0.28 0  0.58 0.28 0  0.6 0.28 0  0.62 0.28 0  0.64 0.28 0  0.66 0.28 0  0.68 0.28 0  0.7 0.28 0  0.72 0.28 0  0.74 0.28 0  0.76 0.28 0  0.78 0.28 0  0.8 0.28 0  0.82 0.28 0  0.84 0.28 0  0.86 0.28
[...]
<PointData  Scalars="q_f"> 
<DataArray  type="Float64"  Name="q_f"  format="ascii">9.9999887424500411e-01  9.9999860548294384e-01  9.9999746384742838e-01  9.9999514006760792e-01  9.9999089151284559e-01  9.9998351854388545e-01  9.9997127040459610e-01  9.9995177568872806e-01  9.9992206040859533e-01  9.9987871859567734e-01  9.9981828731718014e-01  9.9973783929780824e-01  9.9963574012810363e-01  9.9951243455840699e-01  9.9937105345575550e-01  9.9921760450178088e-01  9.9906055671962213e-01  9.9890976210239890e-01  9.9877485395737842e-01  9.9866346349110613e-01  9.9857972677854023e-01  9.9852354697151335e-01  9.9849090636019033e-01  9.9847522558406487e-01  9.9846943459637838e-01  9.9846816908893521e-01  9.9846943459668958e-01  9.9847522558385826e-01  9.9849090636010485e-01  9.9852354697153944e-01  9.9857972677829343e-01  9.9866346349126545e-01  9.9877485395726251e-01  9.9890976210223326e-01  9.9906055671959282e-01  9.9921760450182728e-01  9.9937105345578170e-01  9.9951243455855154e-01  9.9963574012825318e-01  9.9973783929782600e-01  9.9981828731746802e-01  9.9987871859573685e-01  9.9992206040843779e-01  9.9995177568883531e-01  9.9997127040473022e-01  9.9998351854373568e-01  9.9999089151330434e-01  9.9999514006741530e-01  9.9999746384759980e-01  9.9999860548263597e-01  9.9999887424500411e-01  9.9999849251294215e-01  9.9999889409504406e-01  9.9999812491862206e-01  9.9999655408818644e-01  9.9999381969501633e-01  9.9998929043607232e-01  9.9998209138546512e-01  9.9997110258081390e-01  9.9995499778872099e-01  9.9993234709547707e-01  9.9990179426115711e-01  9.9986230241298057e-01  9.9981343830901515e-01  9.9975564097144443e-01  9.9969040313336810e-01  9.9962029277077291e-01  9.9954876361435196e-01  9.9947974837341824e-01  9.9941708836996979e-01  9.9936391206708974e-01  9.9932211211135868e-01  9.9929206811790050e-01  9.9927271304530041e-01  9.9926195279375174e-01  9.9925734546595313e-01  9.9925686158126048e-01  9.9925951034911265e-01  9.9926564654042571e-01  9.9927686211514266e-01  9.9929548956601755e-01  9.9932386004150719e-01  9.9936353061879946e-01  9.9941469889172785e-01  9.9947596031370733e-01  9.9954445784013735e-01  9.9961636090802419e-01  9.9968752751041146e-01  9.9975417171592462e-01  9.9981338241684337e-01  9.9986340187291645e-01  9.9990364906547191e-01  9.9993453758685802e-01  9.9995717433096354e-01  9.9997302999611359e-01  9.9998365245320286e-01  9.9999046215438558e-01  9.9999463704723646e-01  9.9999707037202246e-01  9.9999836913809936e-01  9.9999885057077520e-01  9.9999849251294215e-01  9.9999665770528723e-01  9.9999773767946398e-01  9.9999630709205334e-01  9.9999330515964213e-01  9.9998817675739338e-01  9.9997986898763036e-01  9.9996697313652350e-01  9.9994778149375407e-01  9.9992040536422278e-01  9.9988298652320762e-01  9.9983399703158116e-01  9.9977259073285940e-01  9.9969894024302786e-01  9.9961447485342581e-01  9.9952193748672380e-01  9.9942520765580511e-01  9.9932888846844459e-01  9.9923771654205429e-01  9.9915590676676869e-01  9.9908657217762797e-01  9.9903135250786490e-01  9.9899034290201771e-01  9.9896234606269496e-01  9.9894539324278153e-01  9.9893741111016121e-01  9.9893687051557634e-01  9.9894325190446653e-01  9.9895720361635698e-01  9.9898034540214842e-01  9.9901476143781565e-01  9.9906231027457759e-01  9.9912393004460887e-01  9.9919912066230454e-01  9.9928573887517169e-01  9.9938015928210189e-01  9.9947775859914578e-01  9.9957359941567625e-01  9.9966314676478529e-01  9.9974285667412821e-01  9.9981052499328982e-01  9.9986535801827736e-01  9.9990779881009617e-01  9.9993919337409165e-01  9.9996139855294064e-01  9.9997642062048941e-01  9.9998614118913964e-01  9.9999214868374020e-01  9.9999565880183039e-01  9.9999747702656283e-01  9.9999792590081515e-01  9.9999665770528723e-01  9.9999217727900269e-01  9.9999493307742970e-01  9.9999183772562972e-01  9.9998522077232010e-01  9.9997392058176415e-01  9.9995564989197583e-01  9.9992736100988344e-01  9.9988539160599577e-01  9.9982574222025256e-01  9.9974455283518593e-01  9.9963875879756658e-01  9.9950683630708237e-01  9.9934948629863019e-01  9.9917007370531030e-01  9.9897465758895054e-01  9.9877152290032134e-01  9.9857024258702698e-01  9.9838042675770200e-01  9.9821041268532917e-01  9.9806618264511171e-01  9.9795075329577132e-01  9.9786417250244919e-01  9.9780411736361307e-01  9.9776694734847282e-01  9.9774896121637646e-01  9.9774755821736416e-01  9.9776202351068588e-01  9.9779374249855590e-01  9.9784578245419875e-01  9.9792193307459798e-01  9.9802543386192144e-01  9.9815770061503195e-01  9.9831737228898254e-01  9.9849992676030053e-01  9.9869797512696035e-01  9.9890217358058220e-01  9.9910253706646146e-01  9.9928984534570175e-01  9.9945682741709496e-01  9.9959889220510967e-01  9.9971431081812057e-01  9.9980390067963920e-01  9.9987036951121744e-01  9.9991752186270633e-01  9.9994951251678121e-01  9.9997026909975284e-01  9.9998312796051425e-01  9.9999065200133586e-01  9.9999452752074747e-01  9.9999535786006077e-01  9.9999217727900269e-01  9.9998216617336255e-01  9.9998894883682055e-01  9.9998246067397822e-01  9.9996827258351140e-01  9.9994400871572953e-01  9.9990479342363570e-01  9.9984412681962354e-01  9.9975422752727161e-01  9.9962664609607410e-01  9.9945329697884100e-01  9.9922785848771301e-01  9.9894733877712383e-01  9.9861347919908983e-01  9.9823360897840319e-01  9.9782061861291016e-01  9.9739189291492303e-01  9.9696730121537491e-01  9.9656660559731847e-01  9.9620682940814498e-01  9.9590016309827456e-01  9.9565286024357302e-01  9.9546533629026501e-01  9.9533340143241256e-01  9.9525031095544758e-01  9.9520915072530514e-01  9.9520501443780673e-01  9.9523647725145226e-01  9.9530601984431089e-01  9.9541928497526799e-01  9.9558331333782191e-01  9.9580415051874149e-01  9.9608438488276818e-01  9.9642122172566461e-01  9.9680559955164127e-01  9.9722261928899825e-01  9.9765323552134144e-01  9.9807683605507069e-01  9.9847411152567567e-01  9.9882956441083193e-01  9.9913314198074021e-01  9.9938074757590223e-01  9.9957369110600913e-01  9.9971738235576102e-01  9.9981968574972668e-01  9.9988933325210483e-01  9.9993467030131400e-01  9.9996284435996574e-01  9.9997937888016153e-01  9.9998790655602587e-01  9.9998963592018608e-01  9.9998216617336255e-01  9.9996079930035653e-01  9.9997675265974295e-01  9.9996372724045379e-01  9.9993448418373754e-01  9.9988440786069843e-01  9.9980353066979044e-01  9.9967856023410784e-01  9.9949365432513360e-01  9.9923172529825821e-01  9.9887658473448615e-01  9.9841580494620141e-01  9.9784386098083189e-01  9.9716486853993136e-01  9.9639413973266622e-01  9.9555792001224352e-01  9.9469105368290700e-01  9.9383286107362590e-01  9.9302202713119403e-01  9.9229161155414292e-01  9.9166527556218753e-01  9.9115548890162086e-01  9.9076396489918905e-01  9.9048405350284541e-01  9.9030444139270857e-01  9.9021331265890467e-01  9.9020209363935252e-01  9.9026800953385619e-01  9.9041490364260498e-01  9.9065209967908618e-01  9.9099148484721411e-01  9.9144338797336939e-01  9.9201214292873463e-01  9.9269238526307335e-01  9.9346706261747775e-01  9.9430781002055790e-01  9.9517778529597234e-01  9.9603641350404615e-01  9.9684496229511299e-01  9.9757165584569374e-01  9.9819521525688237e-01  9.9870621239269897e-01  9.9910624898773825e-01  9.9940550369742887e-01  9.9961947334266910e-01  9.9976573137832425e-01  9.9986130127618533e-01  9.9992090765485475e-01  9.9995601191807237e-01  9.9997415528689382e-01  9.9997764757689522e-01  9.9996079930035653e-01  9.9991702600403254e-01  9.9995287816136913e-01  9.9992785592410383e-01  9.9986996914245829e-01  9.9977072993497429e-01  9.9961063515708393e-01  9.9936367878198684e-01  9.9899904597033651e-01  9.9848378735868082e-01  9.9778709835474022e-01  9.9688591440536134e-01  9.9577091339434243e-01  9.9445155602528412e-01  9.9295866726982462e-01  9.9134341295149664e-01  9.8967234707700469e-01  9.8801928562260444e-01  9.8645572985820273e-01  9.8504203028181314e-01  9.8382124133689763e-01  9.8281676836682430e-01  9.8203382731305933e-01  9.8146385980074424e-01  9.8109061427952915e-01  9.8089657382024908e-01  9.8086857916821446e-01  9.8100170700065281e-01  9.8130070550124793e-01  9.8177862205440081e-01  9.8245270480789937e-01  9.8333818216892521e-01  9.8444105417324734e-01  9.8575147009254138e-01  9.8723945391457024e-01  9.8885446894718321e-01  9.9052948447813538e-01  9.9218898271687450e-01  9.9375914870200166e-01  9.9517780810149414e-01  9.9640180127854872e-01  9.9741033674806479e-01  9.9820408616359957e-01  9.9880090104072550e-01  9.9922969597548983e-01  9.9952413208057511e-01  9.9971734817392166e-01  9.9983834154030138e-01  9.9990987107905616e-01  9.9994691796408064e-01  9.9995361191113197e-01  9.9991702600403254e-01  9.9983092485793168e-01  9.9990797075700699e-01  9.9986201229477656e-01  9.9975197693698570e-01  9.9956315512308624e-01  9.9925904334178706e-01  9.9879099463205989e-01  9.9810179556641387e-01  9.9713095296645171e-01  9.9582289346959574e-01  9.9413742700045393e-01  9.9206064970040997e-01  9.8961365586895045e-01  9.8685630851005268e-01  9.8388413818698128e-01  9.8081814078850016e-01  9.7778935688575486e-01  9.7492185144883003e-01  9.7231828137437426e-01  9.7005128461711243e-01  9.6816183623403174e-01  9.6666349621388614e-01  9.6555014538964268e-01  9.6480474928406768e-01  9.6440746702972824e-01  9.6434224714883099e-01  9.6460144256516422e-01  9.6518798999833011e-01  9.6611464973869199e-01  9.6739992067846470e-01  9.6906062903470713e-01  9.7110191666314793e-01  9.7350642211802940e-01  9.7622552219754022e-01  9.7917589268153316e-01  9.8224373339629611e-01  9.8529681270242608e-01  9.8820185843491626e-01  9.9084294813608298e-01  9.9313626268168875e-01  9.9503790192419472e-01  9.9654374143180613e-01  9.9768257700580298e-01  9.9850528442754127e-01  9.9907309387396004e-01  9.9944747681931523e-01  9.9968295962410092e-01  9.9982274802167914e-01  9.9989529248620002e-01  9.9990741086800849e-01  9.9983092485793168e-01  9.9966836725991148e-01  9.9982681311199384e-01  9.9974618880546218e-01  9.9954534736950140e-01  9.9920042707435919e-01  9.9864610674039822e-01  9.9779542949513111e-01  9.9654708864392516e-01  9.9479550571952369e-01  9.9244592077211069e-01  9.8943310258816564e-01  9.8574015030879913e-01  9.8141252735443130e-01  9.7656249491086922e-01  9.7136092174234334e-01  9.6601686106665341e-01  9.6074931353545223e-01  9.5575859901989790e-01  9.5120512018033754e-01  9.4720043218033478e-01  9.4381059778133580e-01  9.4106734137712444e-01  9.3898086492970678e-01  9.3754983135185210e-01  9.3676728728846070e-01  9.3662384103876561e-01  9.3711002447831593e-01  9.3821884226844265e-01  9.3994806982365242e-01  9.4230059960292289e-01  9.4528047958453276e-01  9.4888285584049137e-01  9.5307834553157433e-01  9.5779588461249399e-01  9.6291087327014990e-01  9.6824529959557759e-01  9.7358282820823216e-01  9.7869622086269470e-01  9.8337973326879780e-01  9.8747749339221558e-01  9.9090071925415002e-01  9.9363074000422835e-01  9.9570921474371354e-01  9.9722007980528793e-01  9.9826884153550210e-01  9.9896400941694197e-01  9.9940340661166327e-01  9.9966540911046309e-01  9.9980164036249974e-01  9.9982227320478367e-01  9.9966836725991148e-01  9.9937390809568438e-01  9.9968591913345750e-01  9.9955099517752566e-01  9.9919900017261276e-01  9.9859409632291374e-01  9.9762459564625938e-01  9.9614206219013557e-01  9.9397561391930689e-01  9.9095045079319433e-01  9.8691453890631575e-01  9.8177060033764652e-01  9.7550683462311882e-01  9.6821772782221172e-01  9.6010680673209525e-01  9.5146697995037521e-01  9.4264077309199978e-01  9.3397030923123026e-01  9.2575192773473480e-01  9.1820955076002264e-01  9.1149337505293138e-01  9.0569930182278291e-01  9.0089580185341911e-01  8.9714378291085850e-01  8.9450171061255090e-01  8.9301778655132591e-01  8.9271737969549880e-01  8.9359458469307562e-01  8.9561329341521856e-01  8.9871817711721558e-01  9.0285093770825930e-01  9.0796311775645400e-01  9.1401583511789275e-01  9.2096137281391066e-01  9.2871098841405564e-01  9.3710269011006431e-01  9.4588579870822442e-01  9.5473322202881594e-01  9.6328066101238563e-01  9.7118092497614805e-01  9.7815643727478696e-01  9.8403518319904337e-01  9.8876249500907765e-01  9.9238940350539862e-01  9.9504459435425052e-01  9.9689968312511279e-01  9.9813662662720715e-01  9.9892270829123320e-01  9.9939370823349694e-01  9.9963907725959877e-01  9.9967191528163957e-01  9.9937390809568438e-01  9.9886239527426601e-01  9.9945100086074445e-01  9.9923593659200471e-01  9.9864355498098056e-01  9.9762499745445832e-01  9.9599791782285341e-01  9.9352053025384057e-01  9.8991864473878310e-01  9.8491852706538541e-01  9.7829226539211067e-01  9.6991007754728409e-01  9.5978775379175507e-01  9.4811438724708275e-01  9.3524717493304099e-01  9.2166761190751556e-01  9.0790612591586950e-01  8.9445616876036815e-01  8.8170701559122455e-01  8.6992018369850066e-01  8.5925625177797893e-01  8.4983482156600343e-01  8.4179420652395698e-01  8.3531956435417887e-01  8.3062723396974658e-01  8.2791635869758284e-01  8.2731277915869972e-01  8.2883017775508439e-01  8.3236432741047373e-01  8.3772388500127248e-01  8.4468753354895942e-01  8.5306430465383454e-01  8.6272787106697379e-01  8.7360390558935330e-01  8.8561208944378578e-01  8.9858947670237377e-01  9.1223388215135104e-01  9.2609701950729095e-01  9.3963341649757748e-01  9.5228699946966999e-01  9.6358450021017983e-01  9.7320666221836327e-01  9.8102025791060510e-01  9.8706898357836259e-01  9.9153333815925426e-01  9.9467548058775790e-01  9.9678458377662960e-01  9.9813299365414221e-01  9.9894520975571321e-01  9.9936915234140822e-01  9.9941752771740655e-01  9.9886239527426601e-01  9.9801073932883522e-01  9.9907490993761505e-01  9.9874903195682985e-01  9.9779161717152132e-01  9.9614466555543413e-01  9.9352413546343576e-01  9.8955455045214558e-01  9.8381819226031941e-01  9.7591134861485229e-01  9.6551854480359811e-01  9.5249438435744427e-01  9.3693253767843920e-01  9.1919715404788405e-01  8.9989587742926569e-01  8.7978805980029773e-01  8.5964567446303985e-01  8.4011015409001455e-01  8.2160134485386171e-01  8.0432098406852082e-01  7.8835212105154862e-01  7.7380717108216279e-01  7.6095006443849644e-01  7.5023055308630116e-01  7.4221401200820192e-01  7.3743971697262001e-01  7.3626722385872223e-01  7.3876801181724305e-01  7.4470015975376092e-01  7.5357814246216315e-01  7.6481865885613154e-01  7.7790995754372749e-01  7.9253278809933347e-01  8.0857528722068972e-01  8.2603301944433416e-01  8.4484392780167861e-01  8.6474034515552012e-01  8.8518739773321164e-01  9.0543083067246233e-01  9.2462780819680956e-01  9.4200635987577419e-01  9.5699919607539763e-01  9.6931719032433517e-01  9.7895381652642743e-01  9.8613360660098759e-01  9.9122960079245381e-01  9.9467589650375143e-01  9.9689395948716386e-01  9.9823776362755245e-01  9.9894057407627923e-01  9.9900539766570184e-01  9.9801073932883522e-01  9.9665252449344288e-01  9.9849697322833952e-01  9.9802877154197800e-01  9.9654241347310479e-01  9.9398453880454651e-01  9.8993338849562962e-01  9.8383367805640565e-01  9.7508273828538028e-01  9.6312351461467283e-01  9.4756163926264048e-01  9.2828807744829778e-01  9.0557302808700191e-01  8.8009095461731923e-01  8.5284463681478284e-01  8.2498281246842864e-01  7.9755047513730415e-01  7.7125806983860568e-01  7.4637476141469883e-01  7.2281356324209045e-01  7.0038811066006723e-01  6.7912979408857799e-01  6.5951629475059192e-01  6.4250178598087893e-01  6.2933183902665424e-01  6.2121863103453523e-01  6.1899761034415834e-01  6.2287966278056062e-01  6.3237869543377700e-01  6.4644840433595163e-01  6.6379758153773849e-01  6.8327719784000562e-01  7.0418425111434946e-01  7.2635017843400018e-01  7.4997862828215989e-01  7.7531962557442258e-01  8.0234194919838364e-01  8.3054938995886440e-01  8.5899992223498012e-01  8.8649125971788911e-01  9.1182095636857252e-01  9.3402488503672398e-01  9.5252832118032693e-01  9.6718643725494102e-01  9.7822838009565949e-01  9.8614164584770636e-01  9.9153870429798674e-01  9.9503820836424173e-01  9.9717185775543271e-01  9.9829012561843689e-01  9.9836638520486543e-01  9.9665252449344288e-01  9.9457936367334598e-01  9.9764486874897063e-01  9.9700927994691013e-01  9.9479204266225241e-01  9.9097486982513028e-01  9.8496143237907730e-01  9.7597072766923909e-01  9.6318223595323427e-01  9.4588458838571898e-01  9.2365386615941192e-01  8.9652985591221257e-01  8.6513433242498006e-01  8.3066756234799910e-01  7.9473421923572629e-01  7.5899821941701540e-01  7.2474827764556538e-01  6.9254157364981628e-01  6.6211541979836241e-01  6.3266246051822128e-01  6.0338594680168445e-01  5.7410174971986749e-01  5.4562504334750728e-01  5.1977376678379017e-01  4.9898084463549897e-01  4.8565660567397301e-01  4.8151597157821674e-01  4.8707567085469589e-01  5.0147822003087927e-01  5.2272558300100957e-01  5.4828181232959750e-01  5.7584778350433086e-01  6.0400871963289182e-01  6.3248711300886862e-01  6.6190494608535966e-01  6.9319165330319321e-01  7.2693465250315026e-01  7.6295694697743754e-01  8.0025047939363803e-01  8.3721834383995475e-01  8.7207788158351340e-01  9.0326370980311621e-01  9.2971374269928397e-01  9.5098682587366856e-01  9.6722163800464467e-01  9.7898715285017202e-01  9.8708910654402926e-01  9.9238625651351342e-01  9.9563849063899146e-01  9.9734695267631823e-01  9.9741875909177558e-01  9.9457936367334598e-01  9.9155353693444037e-01  9.9644017275540664e-01  9.9562902609758830e-01  9.9244945957185704e-01  9.8697303497759925e-01  9.7839782947142695e-01  9.6568077916190087e-01  9.4777307374037512e-01  9.2385016379111573e-01  8.9357449306979675e-01  8.5733856560593280e-01  8.1639936749801201e-01  7.7280443705252544e-01  7.2903675109113908e-01  6.8739210607980572e-01  6.4925316978946856e-01  6.1457470188704766e-01  5.8190318771356120e-01  5.4902921290521634e-01  5.1403481203567725e-01  4.7630512064565850e-01  4.3711874846045917e-01  3.9960412284703706e-01  3.6805974314104667e-01  3.4684779424635714e-01  3.3919857934799197e-01  3.4627084767422739e-01  3.6675914122310121e-01  3.9723088262041772e-01  4.3315604557063092e-01  4.7030427157174609e-01  5.0599058497645488e-01  5.3967353875683743e-01  5.7266726955542802e-01  6.0714450283604937e-01  6.4494758808444885e-01  6.8673878303502434e-01  7.3174303223589054e-01  7.7802668494935756e-01  8.2308666200097635e-01  8.6449695285410066e-01  9.0041556846827497e-01  9.2984854219887025e-01  9.5266325006379493e-01  9.6941422937700195e-01  9.8107644861953447e-01  9.8877232011101079e-01  9.9353348321923596e-01  9.9604101784088983e-01  9.9607581280223212e-01  9.9155353693444037e-01  9.8733578358268359e-01  9.9480830558717037e-01  9.9384252160309050e-01  9.8945655203669902e-01  9.8189769472255839e-01  9.7014159174743098e-01  9.5286782948272852e-01  9.2882725630012530e-01  8.9718656180928280e-01  8.5790331370865891e-01  8.1204713774093085e-01  7.6192831208831402e-01  7.1088130447536113e-01  6.6259944198016707e-01  6.2007070941065534e-01  5.8443188063814355e-01  5.5430216894140283e-01  5.2609204137376653e-01  4.9529031760595088e-01  4.5818642546435628e-01  4.1336945281842102e-01  3.6257883522466117e-01  3.1066898742065846e-01  2.6460757198835166e-01  2.3173317093559456e-01  2.1777331796354313e-01  2.2518634292438428e-01  2.5233668031833284e-01  2.9386589949618591e-01  3.4227079869857574e-01  3.9022451930112684e-01  4.3282699009803743e-01  4.6889981300738043e-01  5.0075439511751685e-01  5.3260336582314993e-01  5.6850817197414205e-01  6.1082278158890868e-01  6.5957778863251915e-01  7.1273282030984231e-01  7.6698015523177132e-01  8.1873067103135355e-01  8.6496505270434698e-01  9.0375350836926016e-01  9.3439358320561583e-01  9.5723710463289102e-01  9.7334138751059629e-01  9.8407890518087204e-01  9.9077751035281392e-01  9.9431560971328548e-01  9.9425901345906642e-01  9.8733578358268359e-01  9.8172952513039258e-01  9.9269274019750031e-01  9.9163337214464331e-01  9.8580878931454896e-01  9.7576203405012918e-01  9.6025176181465377e-01  9.3769670403582506e-01  9.0672697310786088e-01  8.6668376466533503e-01  8.1813779173621193e-01  7.6329365042226205e-01  7.0606825042321042e-01  6.5161857920903532e-01  6.0518643624108825e-0