<?xml version="1.0"?>
<VTKFile type="UnstructuredGrid"  version="0.1"  >
<UnstructuredGrid>
<Piece  NumberOfPoints="2601" NumberOfCells="5000">
<Points>
<DataArray  type="Float64"  NumberOfComponents="3"  format="ascii">0 0 0  0.02 0 0  0.04 0 0  0.06 0 0  0.08 0 0  0.1 0 0  0.12 0 0  0.14 0 0  0.16 0 0  0.18 0 0  0.2 0 0  0.22 0 0  0.24 0 0  0.26 0 0  0.28 0 0  0.3 0 0  0.32 0 0  0.34 0 0  0.36 0 0  0.38 0 0  0.4 0 0  0.42 0 0  0.44 0 0  0.46 0 0  0.48 0 0  0.5 0 0  0.52 0 0  0.54 0 0  0.5600000000000001 0 0  0.58 0 0  0.6 0 0  0.62 0 0  0.64 0 0  0.66 0 0  0.68 0 0  0.7 0 0  0.72 0 0  0.74 0 0  0.76 0 0  0.78 0 0  0.8 0 0  0.82 0 0  0.84 0 0  0.86 0 0  0.88 0 0  0.9 0 0  0.92 0 0  0.9399999999999999 0 0  0.96 0 0  0.98 0 0  1 0 0  0 0.02 0  0.02 0.02 0  0.04 0.02 0  0.06 0.02 0  0.08 0.02 0  0.1 0.02 0  0.12 0.02 0  0.14 0.02 0  0.16 0.02 0  0.18 0.02 0  0.2 0.02 0  0.22 0.02 0  0.24 0.02 0  0.26 0.02 0  0.28 0.02 0  0.3 0.02 0  0.32 0.02 0  0.34 0.02 0  0.36 0.02 0  0.38 0.02 0  0.4 0.02 0  0.42 0.02 0  0.44 0.02 0  0.46 0.02 0  0.48 0.02 0  0.5 0.02 0  0.52 0.02 0  0.54 0.02 0  0.5600000000000001 0.02 0  0.58 0.02 0  0.6 0.02 0  0.62 0.02 0  0.64 0.02 0  0.66 0.02 0  0.68 0.02 0  0.7 0.02 0  0.72 0.02 0  0.74 0.02 0  0.76 0.02 0  0.78 0.02 0  0.8 0.02 0  0.82 0.02 0  0.84 0.02 0  0.86 0.02 0  0.88 0.02 0  0.9 0.02 0  0.92 0.02 0  0.9399999999999999 0.02 0  0.96 0.02 0  0.98 0.02 0  1 0.02 0  0 0.04 0  0.02 0.04 0  0.04 0.04 0  0.06 0.04 0  0.08 0.04 0  0.1 0.04 0  0.12 0.04 0  0.14 0.04 0  0.16 0.04 0  0.18 0.04 0  0.2 0.04 0  0.22 0.04 0  0.24 0.04 0  0.26 0.04 0  0.28 0.04 0  0.3 0.04 0  0.32 0.04 0  0.34 0.04 0  0.36 0.04 0  0.38 0.04 0  0.4 0.04 0  0.42 0.04 0  0.44 0.04 0  0.46 0.04 0  0.48 0.04 0  0.5 0.04 0  0.52 0.04 0  0.54 0.04 0  0.5600000000000001 0.04 0  0.58 0.04 0  0.6 0.04 0  0.62 0.04 0  0.64 0.04 0  0.66 0.04 0  0.68 0.04 0  0.7 0.04 0  0.72 0.04 0  0.74 0.04 0  0.76 0.04 0  0.78 0.04 0  0.8 0.04 0  0.82 0.04 0  0.84 0.04 0  0.86 0.04 0  0.88 0.04 0  0.9 0.04 0  0.92 0.04 0  0.9399999999999999 0.04 0  0.96 0.04 0  0.98 0.04 0  1 0.04 0  0 0.06 0  0.02 0.06 0  0.04 0.06 0  0.06 0.06 0  0.08 0.06 0  0.1 0.06 0  0.12 0.06 0  0.14 0.06 0  0.16 0.06 0  0.18 0.06 0  0.2 0.06 0  0.22 0.06 0  0.24 0.06 0  0.26 0.06 0  0.28 0.06 0  0.3 0.06 0  0.32 0.06 0  0.34 0.06 0  0.36 0.06 0  0.38 0.06 0  0.4 0.06 0  0.42 0.06 0  0.44 0.06 0  0.46 0.06 0  0.48 0.06 0  0.5 0.06 0  0.52 0.06 0  0.54 0.06 0  0.5600000000000001 0.06 0  0.58 0.06 0  0.6 0.06 0  0.62 0.06 0  0.64 0.06 0  0.66 0.06 0  0.68 0.06 0  0.7 0.06 0  0.72 0.06 0  0.74 0.06 0  0.76 0.06 0  0.78 0.06 0  0.8 0.06 0  0.82 0.06 0  0.84 0.06 0  0.86 0.06 0  0.88 0.06 0  0.9 0.06 0  0.92 0.06 0  0.9399999999999999 0.06 0  0.96 0.06 0  0.98 0.06 0  1 0.06 0  0 0.08 0  0.02 0.08 0  0.04 0.08 0  0.06 0.08 0  0.08 0.08 0  0.1 0.08 0  0.12 0.08 0  0.14 0.08 0  0.16 0.08 0  0.18 0.08 0  0.2 0.08 0  0.22 0.08 0  0.24 0.08 0  0.26 0.08 0  0.28 0.08 0  0.3 0.08 0  0.32 0.08 0  0.34 0.08 0  0.36 0.08 0  0.38 0.08 0  0.4 0.08 0  0.42 0.08 0  0.44 0.08 0  0.46 0.08 0  0.48 0.08 0  0.5 0.08 0  0.52 0.08 0  0.54 0.08 0  0.5600000000000001 0.08 0  0.58 0.08 0  0.6 0.08 0  0.62 0.08 0  0.64 0.08 0  0.66 0.08 0  0.68 0.08 0  0.7 0.08 0  0.72 0.08 0  0.74 0.08 0  0.76 0.08 0  0.78 0.08 0  0.8 0.08 0  0.82 0.08 0  0.84 0.08 0  0.86 0.08 0  0.88 0.08 0  0.9 0.08 0  0.92 0.08 0  0.9399999999999999 0.08 0  0.96 0.08 0  0.98 0.08 0  1 0.08 0  0 0.1 0  0.02 0.1 0  0.04 0.1 0  0.06 0.1 0  0.08 0.1 0  0.1 0.1 0  0.12 0.1 0  0.14 0.1 0  0.16 0.1 0  0.18 0.1 0  0.2 0.1 0  0.22 0.1 0  0.24 0.1 0  0.26 0.1 0  0.28 0.1 0  0.3 0.1 0  0.32 0.1 0  0.34 0.1 0  0.36 0.1 0  0.38 0.1 0  0.4 0.1 0  0.42 0.1 0  0.44 0.1 0  0.46 0.1 0  0.48 0.1 0  0.5 0.1 0  0.52 0.1 0  0.54 0.1 0  0.5600000000000001 0.1 0  0.58 0.1 0  0.6 0.1 0  0.62 0.1 0  0.64 0.1 0  0.66 0.1 0  0.68 0.1 0  0.7 0.1 0  0.72 0.1 0  0.74 0.1 0  0.76 0.1 0  0.78 0.1 0  0.8 0.1 0  0.82 0.1 0  0.84 0.1 0  0.86 0.1 0  0.88 0.1 0  0.9 0.1 0  0.92 0.1 0  0.9399999999999999 0.1 0  0.96 0.1 0  0.98 0.1 0  1 0.1 0  0 0.12 0  0.02 0.12 0  0.04 0.12 0  0.06 0.12 0  0.08 0.12 0  0.1 0.12 0  0.12 0.12 0  0.14 0.12 0  0.16 0.12 0  0.18 0.12 0  0.2 0.12 0  0.22 0.12 0  0.24 0.12 0  0.26 0.12 0  0.28 0.12 0  0.3 0.12 0  0.32 0.12 0  0.34 0.12 0  0.36 0.12 0  0.38 0.12 0  0.4 0.12 0  0.42 0.12 0  0.44 0.12 0  0.46 0.12 0  0.48 0.12 0  0.5 0.12 0  0.52 0.12 0  0.54 0.12 0  0.5600000000000001 0.12 0  0.58 0.12 0  0.6 0.12 0  0.62 0.12 0  0.64 0.12 0  0.66 0.12 0  0.68 0.12 0  0.7 0.12 0  0.72 0.12 0  0.74 0.12 0  0.76 0.12 0  0.78 0.12 0  0.8 0.12 0  0.82 0.12 0  0.84 0.12 0  0.86 0.12 0  0.88 0.12 0  0.9 0.12 0  0.92 0.12 0  0.9399999999999999 0.12 0  0.96 0.12 0  0.98 0.12 0  1 0.12 0  0 0.14 0  0.02 0.14 0  0.04 0.14 0  0.06 0.14 0  0.08 0.14 0  0.1 0.14 0  0.12 0.14 0  0.14 0.14 0  0.16 0.14 0  0.18 0.14 0  0.2 0.14 0  0.22 0.14 0  0.24 0.14 0  0.26 0.14 0  0.28 0.14 0  0.3 0.14 0  0.32 0.14 0  0.34 0.14 0  0.36 0.14 0  0.38 0.14 0  0.4 0.14 0  0.42 0.14 0  0.44 0.14 0  0.46 0.14 0  0.48 0.14 0  0.5 0.14 0  0.52 0.14 0  0.54 0.14 0  0.5600000000000001 0.14 0  0.58 0.14 0  0.6 0.14 0  0.62 0.14 0  0.64 0.14 0  0.66 0.14 0  0.68 0.14 0  0.7 0.14 0  0.72 0.14 0  0.74 0.14 0  0.76 0.14 0  0.78 0.14 0  0.8 0.14 0  0.82 0.14 0  0.84 0.14 0  0.86 0.14 0  0.88 0.14 0  0.9 0.14 0  0.92 0.14 0  0.9399999999999999 0.14 0  0.96 0.14 0  0.98 0.14 0  1 0.14 0  0 0.16 0  0.02 0.16 0  0.04 0.16 0  0.06 0.16 0  0.08 0.16 0  0.1 0.16 0  0.12 0.16 0  0.14 0.16 0  0.16 0.16 0  0.18 0.16 0  0.2 0.16 0  0.22 0.16 0  0.24 0.16 0  0.26 0.16 0  0.28 0.16 0  0.3 0.16 0  0.32 0.16 0  0.34 0.16 0  0.36 0.16 0  0.38 0.16 0  0.4 0.16 0  0.42 0.16 0  0.44 0.16 0  0.46 0.16 0  0.48 0.16 0  0.5 0.16 0  0.52 0.16 0  0.54 0.16 0  0.5600000000000001 0.16 0  0.58 0.16 0  0.6 0.16 0  0.62 0.16 0  0.64 0.16 0  0.66 0.16 0  0.68 0.16 0  0.7 0.16 0  0.72 0.16 0  0.74 0.16 0  0.76 0.16 0  0.78 0.16 0  0.8 0.16 0  0.82 0.16 0  0.84 0.16 0  0.86 0.16 0  0.88 0.16 0  0.9 0.16 0  0.92 0.16 0  0.9399999999999999 0.16 0  0.96 0.16 0  0.98 0.16 0  1 0.16 0  0 0.18 0  0.02 0.18 0  0.04 0.18 0  0.06 0.18 0  0.08 0.18 0  0.1 0.18 0  0.12 0.18 0  0.14 0.18 0  0.16 0.18 0  0.18 0.18 0  0.2 0.18 0  0.22 0.18 0  0.24 0.18 0  0.26 0.18 0  0.28 0.18 0  0.3 0.18 0  0.32 0.18 0  0.34 0.18 0  0.36 0.18 0  0.38 0.18 0  0.4 0.18 0  0.42 0.18 0  0.44 0.18 0  0.46 0.18 0  0.48 0.18 0  0.5 0.18 0  0.52 0.18 0  0.54 0.18 0  0.5600000000000001 0.18 0  0.58 0.18 0  0.6 0.18 0  0.62 0.18 0  0.64 0.18 0  0.66 0.18 0  0.68 0.18 0  0.7 0.18 0  0.72 0.18 0  0.74 0.18 0  0.76 0.18 0  0.78 0.18 0  0.8 0.18 0  0.82 0.18 0  0.84 0.18 0  0.86 0.18 0  0.88 0.18 0  0.9 0.18 0  0.92 0.18 0  0.9399999999999999 0.18 0  0.96 0.18 0  0.98 0.18 0  1 0.18 0  0 0.2 0  0.02 0.2 0  0.04 0.2 0  0.06 0.2 0  0.08 0.2 0  0.1 0.2 0  0.12 0.2 0  0.14 0.2 0  0.16 0.2 0  0.18 0.2 0  0.2 0.2 0  0.22 0.2 0  0.24 0.2 0  0.26 0.2 0  0.28 0.2 0  0.3 0.2 0  0.32 0.2 0  0.34 0.2 0  0.36 0.2 0  0.38 0.2 0  0.4 0.2 0  0.42 0.2 0  0.44 0.2 0  0.46 0.2 0  0.48 0.2 0  0.5 0.2 0  0.52 0.2 0  0.54 0.2 0  0.5600000000000001 0.2 0  0.58 0.2 0  0.6 0.2 0  0.62 0.2 0  0.64 0.2 0  0.66 0.2 0  0.68 0.2 0  0.7 0.2 0  0.72 0.2 0  0.74 0.2 0  0.76 0.2 0  0.78 0.2 0  0.8 0.2 0  0.82 0.2 0  0.84 0.2 0  0.86 0.2 0  0.88 0.2 0  0.9 0.2 0  0.92 0.2 0  0.9399999999999999 0.2 0  0.96 0.2 0  0.98 0.2 0  1 0.2 0  0 0.22 0  0.02 0.22 0  0.04 0.22 0  0.06 0.22 0  0.08 0.22 0  0.1 0.22 0  0.12 0.22 0  0.14 0.22 0  0.16 0.22 0  0.18 0.22 0  0.2 0.22 0  0.22 0.22 0  0.24 0.22 0  0.26 0.22 0  0.28 0.22 0  0.3 0.22 0  0.32 0.22 0  0.34 0.22 0  0.36 0.22 0  0.38 0.22 0  0.4 0.22 0  0.42 0.22 0  0.44 0.22 0  0.46 0.22 0  0.48 0.22 0  0.5 0.22 0  0.52 0.22 0  0.54 0.22 0  0.5600000000000001 0.22 0  0.58 0.22 0  0.6 0.22 0  0.62 0.22 0  0.64 0.22 0  0.66 0.22 0  0.68 0.22 0  0.7 0.22 0  0.72 0.22 0  0.74 0.22 0  0.76 0.22 0  0.78 0.22 0  0.8 0.22 0  0.82 0.22 0  0.84 0.22 0  0.86 0.22 0  0.88 0.22 0  0.9 0.22 0  0.92 0.22 0  0.9399999999999999 0.22 0  0.96 0.22 0  0.98 0.22 0  1 0.22 0  0 0.24 0  0.02 0.24 0  0.04 0.24 0  0.06 0.24 0  0.08 0.24 0  0.1 0.24 0  0.12 0.24 0  0.14 0.24 0  0.16 0.24 0  0.18 0.24 0  0.2 0.24 0  0.22 0.24 0  0.24 0.24 0  0.26 0.24 0  0.28 0.24 0  0.3 0.24 0  0.32 0.24 0  0.34 0.24 0  0.36 0.24 0  0.38 0.24 0  0.4 0.24 0  0.42 0.24 0  0.44 0.24 0  0.46 0.24 0  0.48 0.24 0  0.5 0.24 0  0.52 0.24 0  0.54 0.24 0  0.5600000000000001 0.24 0  0.58 0.24 0  0.6 0.24 0  0.62 0.24 0  0.64 0.24 0  0.66 0.24 0  0.68 0.24 0  0.7 0.24 0  0.72 0.24 0  0.74 0.24 0  0.76 0.24 0  0.78 0.24 0  0.8 0.24 0  0.82 0.24 0  0.84 0.24 0  0.86 0.24 0  0.88 0.24 0  0.9 0.24 0  0.92 0.24 0  0.9399999999999999 0.24 0  0.96 0.24 0  0.98 0.24 0  1 0.24 0  0 0.26 0  0.02 0.26 0  0.04 0.26 0  0.06 0.26 0  0.08 0.26 0  0.1 0.26 0  0.12 0.26 0  0.14 0.26 0  0.16 0.26 0  0.18 0.26 0  0.2 0.26 0  0.22 0.26 0  0.24 0.26 0  0.26 0.26 0  0.28 0.26 0  0.3 0.26 0  0.32 0.26 0  0.34 0.26 0  0.36 0.26 0  0.38 0.26 0  0.4 0.26 0  0.42 0.26 0  0.44 0.26 0  0.46 0.26 0  0.48 0.26 0  0.5 0.26 0  0.52 0.26 0  0.54 0.26 0  0.5600000000000001 0.26 0  0.58 0.26 0  0.6 0.26 0  0.62 0.26 0  0.64 0.26 0  0.66 0.26 0  0.68 0.26 0  0.7 0.26 0  0.72 0.26 0  0.74 0.26 0  0.76 0.26 0  0.78 0.26 0  0.8 0.26 0  0.82 0.26 0  0.84 0.26 0  0.86 0.26 0  0.88 0.26 0  0.9 0.26 0  0.92 0.26 0  0.9399999999999999 0.26 0  0.96 0.26 0  0.98 0.26 0  1 0.26 0  0 0.28 0  0.02 0.28 0  0.04 0.28 0  0.06 0.28 0  0.08 0.28 0  0.1 0.28 0  0.12 0.28 0  0.14 0.28 0  0.16 0.28 0  0.18 0.28 0  0.2 0.28 0  0.22 0.28 0  0.24 0.28 0  0.26 0.28 0  0.28 0.28 0  0.3 0.28 0  0.32 0.28 0  0.34 0.28 0  0.36 0.28 0  0.38 0.28 0  0.4 0.28 0  0.42 0.28 0  0.44 0.28 0  0.46 0.28 0  0.48 0.28 0  0.5 0.28 0  0.52 0.28 0  0.54 0.28 0  0.5600000000000001 0.28 0  0.58 0.28 0  0.6 0.28 0  0.62 0.28 0  0.64 0.28 0  0.66 0.28 0  0.68 0.28 0  0.7 0.28 0  0.72 0.28 0  0.74 0.28 0  0.76 0.28 0  0.78 0.28 0  0.8 0.28 0  0.82 0.28 0  0.84 0.28 0  0.86 0.28
[...]
<PointData  Scalars="q_f"> 
<DataArray  type="Float64"  Name="q_f"  format="ascii">9.9999887424283429e-01  9.9999860547958974e-01  9.9999746384126986e-01  9.9999514005431622e-01  9.9999089148606946e-01  9.9998351849089639e-01  9.9997127030531330e-01  9.9995177551002945e-01  9.9992206009849760e-01  9.9987871807314554e-01  9.9981828645400928e-01  9.9973783789091142e-01  9.9963573786489124e-01  9.9951243098388842e-01  9.9937104796850407e-01  9.9921759640195862e-01  9.9906054532354460e-01  9.9890974690461765e-01  9.9877483478352835e-01  9.9866344057156731e-01  9.9857970070242752e-01  9.9852351853078170e-01  9.9849087635774636e-01  9.9847519468358492e-01  9.9846940326524580e-01  9.9846813763437614e-01  9.9846940326557343e-01  9.9847519468336809e-01  9.9849087635765477e-01  9.9852351853086596e-01  9.9857970070220725e-01  9.9866344057177214e-01  9.9877483478340967e-01  9.9890974690444723e-01  9.9906054532356747e-01  9.9921759640202601e-01  9.9937104796859733e-01  9.9951243098394849e-01  9.9963573786482374e-01  9.9973783789088577e-01  9.9981828645416038e-01  9.9987871807337536e-01  9.9992206009854145e-01  9.9995177551011860e-01  9.9997127030520372e-01  9.9998351849085454e-01  9.9999089148608977e-01  9.9999514005443779e-01  9.9999746384129651e-01  9.9999860547950192e-01  9.9999887424283429e-01  9.9999849250905160e-01  9.9999889408609111e-01  9.9999812489957340e-01  9.9999655404710741e-01  9.9999381961275924e-01  9.9998929028369443e-01  9.9998209112739977e-01  9.9997110219212226e-01  9.9995499729175141e-01  9.9993234662906072e-01  9.9990179417286917e-01  9.9986230335087634e-01  9.9981344126663907e-01  9.9975564723001709e-01  9.9969041406572634e-01  9.9962030953804770e-01  9.9954878684728776e-01  9.9947977797362531e-01  9.9941712352875867e-01  9.9936395150913893e-01  9.9932215446889672e-01  9.9929211228269943e-01  9.9927275837040863e-01  9.9926199908485103e-01  9.9925739278334214e-01  9.9925690993034122e-01  9.9925955937467059e-01  9.9926569533768073e-01  9.9927690925136003e-01  9.9929553331978127e-01  9.9932389878351180e-01  9.9936356318423902e-01  9.9941472480802251e-01  9.9947597981829672e-01  9.9954447171811034e-01  9.9961637024282068e-01  9.9968753344125538e-01  9.9975417526742316e-01  9.9981338441253598e-01  9.9986340291701603e-01  9.9990364956727207e-01  9.9993453780312358e-01  9.9995717441063570e-01  9.9997303001741034e-01  9.9998365245389609e-01  9.9999046215024867e-01  9.9999463704306912e-01  9.9999707036903351e-01  9.9999836913618001e-01  9.9999885056887095e-01  9.9999849250905160e-01  9.9999665769402024e-01  9.9999773765206590e-01  9.9999630702934883e-01  9.9999330502238548e-01  9.9998817647719451e-01  9.9997986845720621e-01  9.9996697221971176e-01  9.9994778007984542e-01  9.9992040348833200e-01  9.9988298459587777e-01  9.9983399612966395e-01  9.9977259286939468e-01  9.9969894844930984e-01  9.9961449289282100e-01  9.9952196914756009e-01  9.9942525579580699e-01  9.9932895416958012e-01  9.9923779877519991e-01  9.9915600275730332e-01  9.9908667831933418e-01  9.9903146542719456e-01  9.9899046024961036e-01  9.9896246679721667e-01  9.9894551737898862e-01  9.9893753904121341e-01  9.9893700211763470e-01  9.9894338572478580e-01  9.9895733650600449e-01  9.9898047284080660e-01  9.9901487849045123e-01  9.9906241278322960e-01  9.9912401553922248e-01  9.9919918866072344e-01  9.9928579058264722e-01  9.9938019696317837e-01  9.9947778493861295e-01  9.9957361705509240e-01  9.9966315804574135e-01  9.9974286353188124e-01  9.9981052893562672e-01  9.9986536015090566e-01  9.9990779989084633e-01  9.9993919388510843e-01  9.9996139877733980e-01  9.9997642071197557e-01  9.9998614122369578e-01  9.9999214869564179e-01  9.9999565880538566e-01  9.9999747702633346e-01  9.9999792589697378e-01  9.9999665769402024e-01  9.9999217724473310e-01  9.9999493299308417e-01  9.9999183752763587e-01  9.9998522033225545e-01  9.9997391966872706e-01  9.9995564814343429e-01  9.9992735797064536e-01  9.9988538690883744e-01  9.9982573605633229e-01  9.9974454675551128e-01  9.9963875675440528e-01  9.9950684555835345e-01  9.9934951751826195e-01  9.9917013970280921e-01  9.9897477055687844e-01  9.9877169096147012e-01  9.9857046714212472e-01  9.9838070203745966e-01  9.9821072788746423e-01  9.9806652565701270e-01  9.9795111425606720e-01  9.9786454579612238e-01  9.9780450165067058e-01  9.9776734400747813e-01  9.9774937180500922e-01  9.9774798155783651e-01  9.9776245329027247e-01  9.9779416657209097e-01  9.9784618466012731e-01  9.9792229714743741e-01  9.9802574769210584e-01  9.9815795885667846e-01  9.9831757632215823e-01  9.9850008259901435e-01  9.9869809074632265e-01  9.9890225692980350e-01  9.9910259517500333e-01  9.9928988420900566e-01  9.9945685212883006e-01  9.9959890702510856e-01  9.9971431914976183e-01  9.9980390505309424e-01  9.9987037164756076e-01  9.9991752283284641e-01  9.9994951292657219e-01  9.9997026926111998e-01  9.9998312802024225e-01  9.9999065202332427e-01  9.9999452752510820e-01  9.9999535785106164e-01  9.9999217724473310e-01  9.9998216607398527e-01  9.9998894858633292e-01  9.9998246007751512e-01  9.9996827123943222e-01  9.9994400589821686e-01  9.9990478800422744e-01  9.9984411741605772e-01  9.9975421321745095e-01  9.9962662811535874e-01  9.9945328163318381e-01  9.9922786087331772e-01  9.9894738583217157e-01  9.9861360972559332e-01  9.9823386849695739e-01  9.9782104897770296e-01  9.9739251992980360e-01  9.9696812596034634e-01  9.9656760442009384e-01  9.9620796319304272e-01  9.9590139119994003e-01  9.9565415222001130e-01  9.9546667683298429e-01  9.9533478828536859e-01  9.9525174834852126e-01  9.9521064071559262e-01  9.9520654778361983e-01  9.9523802630401159e-01  9.9530753743278388e-01  9.9542071217005879e-01  9.9558459424604040e-01  9.9580524728036757e-01  9.9608528530913021e-01  9.9642193666568624e-01  9.9680615332325073e-01  9.9722303952179625e-01  9.9765354707576093e-01  9.9807705969972882e-01  9.9847426515787374e-01  9.9882966430197884e-01  9.9913320293682439e-01  9.9938078228931182e-01  9.9957370949157975e-01  9.9971739139583149e-01  9.9981968987422110e-01  9.9988933499977406e-01  9.9993467099199673e-01  9.9996284461948648e-01  9.9997937897529443e-01  9.9998790658555925e-01  9.9998963590338741e-01  9.9998216607398527e-01  9.9996079902335666e-01  9.9997675194746816e-01  9.9996372552636981e-01  9.9993448028472542e-01  9.9988439963491182e-01  9.9980351484579744e-01  9.9967853303062049e-01  9.9949361401910208e-01  9.9923167812940328e-01  9.9887655485081805e-01  9.9841584678498330e-01  9.9784406884067756e-01  9.9716537515640424e-01  9.9639509690346495e-01  9.9555946199826684e-01  9.9469325582030355e-01  9.9383571391977166e-01  9.9302544220152023e-01  9.9229545793642049e-01  9.9166942826089766e-01  9.9115986403279788e-01  9.9076852810053584e-01  9.9048880535599992e-01  9.9030939223215109e-01  9.9021845546319764e-01  9.9020737824700189e-01  9.9027332409170843e-01  9.9042007575100788e-01  9.9065692676896333e-01  9.9099578646273390e-01  9.9144705480617623e-01  9.9201515631669490e-01  9.9269479966156826e-01  9.9346896669944762e-01  9.9430929129228562e-01  9.9517891393828339e-01  9.9603724461470577e-01  9.9684554535352188e-01  9.9757204098814867e-01  9.9819545288925127e-01  9.9870634869448638e-01  9.9910632148912037e-01  9.9940553942829624e-01  9.9961948965833103e-01  9.9976573829020643e-01  9.9986130400692996e-01  9.9992090868103511e-01  9.9995601230358422e-01  9.9997415543272505e-01  9.9997764756823104e-01  9.9996079902335666e-01  9.9991702526633075e-01  9.9995287622998075e-01  9.9992785124584793e-01  9.9986995842687898e-01  9.9977070727915007e-01  9.9961059176097056e-01  9.9936360533477464e-01  9.9899894130584188e-01  9.9848367766360102e-01  9.9778706874715750e-01  9.9688614703975142e-01  9.9577171453160729e-01  9.9445334581619993e-01  9.9296191165873460e-01  9.9134850383118434e-01  9.8967947508657395e-01  9.8802837253590869e-01  9.8646646778286839e-01  9.8505401503468648e-01  9.8383412766596445e-01  9.8283036385502376e-01  9.8204808962742329e-01  9.8147882492175231e-01  9.8110630726847925e-01  9.8091293081842268e-01  9.8088538302133554e-01  9.8101854706629688e-01  9.8131699795870353e-01  9.8179371989826203e-01  9.8246607007311715e-01  9.8334953399181246e-01  9.8445040787130433e-01  9.8575905235786676e-01  9.8724555903028566e-01  9.8885934558173405e-01  9.9053330142263152e-01  9.9219185947734356e-01  9.9376120315969574e-01  9.9517918228667890e-01  9.9640265610519385e-01  9.9741082948340631e-01  9.9820434896049492e-01  9.9880103070563164e-01  9.9922975519695101e-01  9.9952415715963594e-01  9.9971735807694062e-01  9.9983834526832438e-01  9.9990987251552466e-01  9.9994691857809248e-01  9.9995361203106303e-01  9.9991702526633075e-01  9.9983092298088538e-01  9.9990796577408614e-01  9.9986200019825089e-01  9.9975194914445809e-01  9.9956309639892205e-01  9.9925893177797454e-01  9.9879080988733593e-01  9.9810154596035938e-01  9.9713073351837622e-01  9.9582297876369108e-01  9.9413837895044721e-01  9.9206338548650841e-01  9.8961939826257794e-01  9.8686636385445692e-01  9.8389953374141503e-01  9.8083926807286903e-01  9.7781582408435452e-01  9.7495266849465734e-01  9.7235230538134887e-01  9.7008767728911283e-01  9.6820027927463648e-01  9.6670408943640929e-01  9.6559311812381021e-01  9.6485017195588907e-01  9.6445504696742523e-01  9.6439119014111141e-01  9.6465038820619353e-01  9.6523512066576200e-01  9.6615805620869488e-01  9.6743812869419388e-01  9.6909301081515165e-01  9.7112873397478161e-01  9.7352848699112482e-01  9.7624371475870442e-01  9.7919083125744910e-01  9.8225573150742063e-01  9.8530604363126040e-01  9.8820854818447146e-01  9.9084746579011396e-01  9.9313908911924920e-01  9.9503953620135133e-01  9.9654461430928409e-01  9.9768300787820929e-01  9.9850548120905902e-01  9.9907317718760691e-01  9.9944750971933272e-01  9.9968297205014334e-01  9.9982275292170930e-01  9.9989529478593275e-01  9.9990741167129238e-01  9.9983092298088538e-01  9.9966836268874060e-01  9.9982680090206266e-01  9.9974615927195687e-01  9.9954527948794492e-01  9.9920028410953188e-01  9.9864583822454134e-01  9.9779499694024210e-01  9.9654654378058916e-01  9.9479515261493878e-01  9.9244656760019867e-01  9.8943634005815440e-01  9.8574849841981604e-01  9.8142923845703012e-01  9.7659088523660387e-01  9.7140336269898186e-01  9.6607387728948546e-01  9.6081935046967470e-01  9.5583873814887865e-01  9.5129243403100028e-01  9.4729320652446591e-01  9.4390872201771170e-01  9.4117176096001187e-01  9.3909259222870678e-01  9.3766910744791410e-01  9.3689310386956537e-01  9.3675369469749203e-01  9.3723987079886040e-01  9.3834351555140905e-01  9.4006239051772067e-01  9.4240086153990665e-01  9.4536549973416595e-01  9.4895388886986676e-01  9.5313791601269038e-01  9.5784632713644646e-01  9.6295346679611360e-01  9.6828032994627755e-01  9.7361024893293246e-01  9.7871631716344953e-01  9.8339339397039660e-01  9.8748606911279202e-01  9.9090568477729180e-01  9.9363339293278952e-01  9.9571052409887872e-01  9.9722067769663147e-01  9.9826909469772340e-01  9.9896410947063585e-01  9.9940344456991514e-01  9.9966542444505813e-01  9.9980164817210093e-01  9.9982227676060831e-01  9.9966836268874060e-01  9.9937389740299587e-01  9.9968589075578906e-01  9.9955092726128469e-01  9.9919884443273210e-01  9.9859376999709493e-01  9.9762399111202693e-01  9.9614111939632488e-01  9.9397452790972096e-01  9.9095008846468779e-01  9.8691706527134548e-01  9.8178013017530796e-01  9.7552968530927042e-01  9.6826174442310509e-01  9.6017950889689307e-01  9.5157299932013106e-01  9.4277983621846118e-01  9.3413717709906841e-01  9.2593878024097520e-01  9.1840971367791591e-01  9.1170422385817973e-01  9.0592264848823312e-01  9.0113582266015213e-01  8.9740409274557698e-01  8.9478321478431444e-01  8.9331770766871832e-01  8.9302892117608468e-01  8.9390705474741883e-01  8.9591340014726639e-01  8.9899306272518598e-01  9.0309204187458492e-01  9.0816863610983911e-01  9.1419000777533710e-01  9.2111097931888908e-01  9.2884138149906448e-01  9.3721577999458450e-01  9.4598071226180158e-01  9.5480850185281252e-01  9.6333624468078283e-01  9.7121884120035273e-01  9.7818026538157410e-01  9.8404897714398443e-01  9.8876985958438468e-01  9.9239303618240293e-01  9.9504625302827965e-01  9.9690038593995323e-01  9.9813690492495943e-01  9.9892281453544041e-01  9.9939375232953331e-01  9.9963910152557234e-01  9.9967192827978646e-01  9.9937389740299587e-01  9.9886237109987686e-01  9.9945093836649268e-01  9.9923578991307860e-01  9.9864322026455066e-01  9.9762430049699014e-01  9.9599664585457981e-01  9.9351861619002169e-01  9.8991667078468415e-01  9.8491870620606370e-01  9.7829986180893647e-01  9.6993476895851216e-01  9.5984388564907375e-01  9.4821891990348472e-01  9.3541496629061960e-01  9.2190552473162091e-01  9.0820920005464867e-01  8.9480900536849539e-01  8.8209078460162771e-01  8.7032178504164448e-01  8.5967421869989069e-01  8.5027853066326209e-01  8.4227753523630533e-01  8.3585347614506700e-01  8.3121508282101297e-01  8.2855225034913282e-01  8.2798119564076733e-01  8.2950642719292811e-01  8.3301778258127168e-01  8.3832543117761704e-01  8.4521877244067634e-01  8.5352290099238970e-01  8.6312493873337082e-01  8.7395484380413846e-01  8.8592699025509536e-01  8.9886902427522730e-01  9.1247209926554274e-01  9.2628752262095104e-01  9.3977455038852076e-01  9.5238331104169338e-01  9.6364495593399835e-01  9.7324160022347050e-01  9.8103888343528922e-01  9.8707816404929516e-01  9.9153753156173019e-01  9.9467726053687056e-01  9.9678529113588121e-01  9.9813326610999864e-01  9.9894532643930323e-01  9.9936922170057219e-01  9.9941756941047277e-01  9.9886237109987686e-01  9.9801068614187405e-01  9.9907477964512348e-01  9.9874873551219034e-01  9.9779094575287197e-01  9.9614327703533445e-01  9.9352163934017579e-01  9.8955093099062674e-01  9.8381492192311704e-01  9.7591349332262578e-01  9.6553767445350758e-01  9.5255105048091848e-01  9.3705592436695218e-01  9.1941946391179363e-01  9.0024134845335302e-01  8.8026089010938768e-01  8.6022452284794970e-01  8.4075523986475054e-01  8.2227270614982539e-01  8.0499813561027589e-01  7.8904336461349323e-01  7.7454356510039446e-01  7.6176933356279275e-01  7.5116154705226612e-01  7.4326857224188780e-01  7.3861054912197055e-01  7.3752683822016829e-01  7.4006846939979354e-01  7.4597923321439674e-01  7.5477545789038258e-01  7.6589586349144390e-01  7.7886200340074674e-01  7.9338143304048314e-01  8.0934855122237459e-01  8.2674469282448027e-01  8.4548627710566682e-01  8.6529232410511669e-01  8.8562993521964650e-01  9.0575837046263530e-01  9.2485072240394706e-01  9.4214583200194535e-01  9.5707956342052425e-01  9.6935995189861446e-01  9.7897488505673180e-01  9.8614324447700319e-01  9.9123370646543796e-01  9.9467753826407157e-01  9.9689459988601559e-01  9.9823804826108853e-01  9.9894075708901464e-01  9.9900551793392078e-01  9.9801068614187405e-01  9.9665240997004123e-01  9.9849671642924265e-01  9.9802821367890782e-01  9.9654116348543142e-01  9.9398197236961683e-01  9.8992884165901418e-01  9.8382732317476085e-01  9.7507781451787401e-01  9.6313040622079749e-01  9.4760318198218774e-01  9.2840325358564235e-01  9.0581405400253945e-01  8.8050942000209331e-01  8.5346830476335289e-01  8.2579424888567088e-01  7.9848399293802941e-01  7.7222395603443450e-01  7.4730104644575024e-01  7.2368084611716010e-01  7.0123682108210805e-01  6.8003894860571967e-01  6.6057094870241284e-01  6.4376896677346518e-01  6.3085171451830258e-01  6.2300197467826979e-01  6.2101865466599171e-01  6.2506767503801530e-01  6.3462431766506755e-01  6.4863392260487052e-01  6.6583842988536479e-01  6.8514749675269793e-01  7.0590739884785125e-01  7.2796079012690273e-01  7.5148373701850280e-01  7.7668626186134526e-01  8.0351587325850116e-01  8.3148688800330117e-01  8.5969004201804522e-01  8.8695828444709157e-01  9.1211170524216978e-01  9.3419181340254176e-01  9.5261699300323011e-01  9.6723016340929457e-01  9.7824845794556436e-01  9.8615025722047966e-01  9.9154218338527533e-01  9.9503958998704078e-01  9.9717249949389852e-01  9.9829057256674314e-01  9.9836670090208035e-01  9.9665240997004123e-01  9.9457912187988717e-01  9.9764439154593743e-01  9.9700830996965151e-01  9.9478990269980661e-01  9.9097051229546740e-01  9.8495382497737727e-01  9.7596048329535601e-01  9.6317562955312797e-01  9.4590059872199683e-01  9.2373255169078738e-01  8.9673610837966045e-01  8.6554757321084352e-01  8.3135098780787609e-01  7.9569107092543723e-01  7.6014149972919498e-01  7.2591540421499012e-01  6.9356023313501014e-01  6.6288452236331341e-01  6.3319491402978034e-01  6.0379128221911749e-01  5.7453450516833449e-01  5.4624122963215815e-01  5.2071625136742594e-01  5.0038204154256904e-01  4.8762908554717455e-01  4.8411441093231711e-01  4.9025038812416732e-01  5.0506415330954602e-01  5.2649075052674210e-01  5.5201241399139034e-01  5.7941628861320860e-01  6.0738098285843012e-01  6.3566819081027159e-01  6.6487057865944321e-01  6.9586160514964424e-01  7.2920345033592415e-01  7.6474906165997847e-01  8.0155661793104049e-01  8.3809493745708785e-01  8.7262028702307004e-01  9.0357407816255197e-01  9.2987860940628797e-01  9.5106844468199403e-01  9.6725942187934655e-01  9.7900355963773134e-01  9.8709584683668194e-01  9.9238900167726873e-01  9.9563983310852389e-01  9.9734796507475709e-01  9.9741951789264049e-01  9.9457912187988717e-01  9.9155303799072192e-01  9.9643934070025053e-01  9.9562748751748675e-01  9.9244614421313071e-01  9.8696636333789900e-01  9.7838639414820483e-01  9.6566606103641939e-01  9.4776586990376621e-01  9.2388119152022985e-01  8.9370521133166370e-01  8.5766093390648868e-01  8.1700879201443932e-01  7.7373936802488041e-01  7.3020757374179979e-01  6.8855504433640513e-01  6.5007979396541815e-01  6.1479781399075328e-01  5.8143718629035313e-01  5.4797253434865145e-01  5.1257730385192879e-01  4.7465073182118095e-01  4.3549221083562667e-01  3.9831032866658633e-01  3.6751631625460696e-01  3.4752822708813308e-01  3.4148190268164397e-01  3.5027093280468868e-01  3.7224353630189794e-01  4.0369143920258066e-01  4.3999811450225290e-01  4.7704855671310453e-01  5.1237155205356189e-01  5.4558745904489669e-01  5.7804215604104603e-01  6.1186097239191040e-01  6.4886570717479863e-01  6.8977624247787483e-01  7.3392467314896770e-01  7.7947572459065517e-01  8.2397798126361566e-01  8.6500645931127740e-01  9.0068744440453574e-01  9.2998456500677562e-01  9.5272727203727436e-01  9.6944264596684049e-01  9.8108843865903217e-01  9.8877737661915976e-01  9.9353610344005605e-01  9.9604314882732004e-01  9.9607748854162026e-01  9.9155303799072192e-01  9.8733478496422433e-01  9.9480695545680509e-01  9.9384034558460455e-01  9.8945204433964351e-01  9.8188882520359866e-01  9.7012689277349806e-01  9.5285043624356047e-01  9.2882388702947061e-01  8.9724089650681593e-01  8.5809575563879226e-01  8.1248212897497640e-01  7.6267704157309446e-01  7.1187974860821035e-01  6.6355556772761304e-01  6.2048195692985342e-01  5.8377121921345254e-01  5.5227008918417320e-01  5.2270826054118380e-01  4.9073041337056394e-01  4.5256654946232167e-01  4.0675653012090274e-01  3.5523858499882599e-01  3.0331643576647443e-01  2.5844436860903058e-01  2.2820368957071679e-01  2.1810743022590917e-01  2.2992157078824046e-01  2.6106551545714779e-01  3.0535951426706831e-01  3.5493826795575861e-01  4.0268065006836806e-01  4.4425302151084611e-01  4.7900940379117773e-01  5.0949992779134834e-01  5.3994262814841520e-01  5.7438314153958847e-01  6.1524781481283985e-01  6.6269214969748269e-01  7.1477737511967476e-01  7.6823414102776222e-01  8.1945193960676410e-01  8.6535599110124950e-01  9.0395402828372096e-01  9.3449110870761165e-01  9.5728207912284513e-01  9.7336116505499271e-01  9.8408763859886994e-01  9.9078231738627287e-01  9.9431978504888896e-01  9.9426241994918640e-01  9.8733478496422433e-01  9.8172760553233385e-01  9.9269072904472233e-01  9.9163075716909144e-01  9.8580378080207332e-01  9.7575273233892978e-01  9.6023776845869668e-01  9.3768448962394146e-01  9.0674051245865694e-01  8.6677738369858726e-01  8.1839729758908475e-01  7.6379916293052885e-01  7.0679531966588427e-01  6.5229749329345876e-01  6.0522251401668514e-0