<?xml version="1.0"?>
<VTKFile type="UnstructuredGrid"  version="0.1"  >
<UnstructuredGrid>
<Piece  NumberOfPoints="2601" NumberOfCells="5000">
<Points>
<DataArray  type="Float64"  NumberOfComponents="3"  format="ascii">0 0 0  0.02 0 0  0.04 0 0  0.06 0 0  0.08 0 0  0.1 0 0  0.12 0 0  0.14 0 0  0.16 0 0  0.18 0 0  0.2 0 0  0.22 0 0  0.24 0 0  0.26 0 0  0.28 0 0  0.3 0 0  0.32 0 0  0.34 0 0  0.36 0 0  0.38 0 0  0.4 0 0  0.42 0 0  0.44 0 0  0.46 0 0  0.48 0 0  0.5 0 0  0.52 0 0  0.54 0 0  0.5600000000000001 0 0  0.58 0 0  0.6 0 0  0.62 0 0  0.64 0 0  0.66 0 0  0.68 0 0  0.7 0 0  0.72 0 0  0.74 0 0  0.76 0 0  0.78 0 0  0.8 0 0  0.82 0 0  0.84 0 0  0.86 0 0  0.88 0 0  0.9 0 0  0.92 0 0  0.9399999999999999 0 0  0.96 0 0  0.98 0 0  1 0 0  0 0.02 0  0.02 0.02 0  0.04 0.02 0  0.06 0.02 0  0.08 0.02 0  0.1 0.02 0  0.12 0.02 0  0.14 0.02 0  0.16 0.02 0  0.18 0.02 0  0.2 0.02 0  0.22 0.02 0  0.24 0.02 0  0.26 0.02 0  0.28 0.02 0  0.3 0.02 0  0.32 0.02 0  0.34 0.02 0  0.36 0.02 0  0.38 0.02 0  0.4 0.02 0  0.42 0.02 0  0.44 0.02 0  0.46 0.02 0  0.48 0.02 0  0.5 0.02 0  0.52 0.02 0  0.54 0.02 0  0.5600000000000001 0.02 0  0.58 0.02 0  0.6 0.02 0  0.62 0.02 0  0.64 0.02 0  0.66 0.02 0  0.68 0.02 0  0.7 0.02 0  0.72 0.02 0  0.74 0.02 0  0.76 0.02 0  0.78 0.02 0  0.8 0.02 0  0.82 0.02 0  0.84 0.02 0  0.86 0.02 0  0.88 0.02 0  0.9 0.02 0  0.92 0.02 0  0.9399999999999999 0.02 0  0.96 0.02 0  0.98 0.02 0  1 0.02 0  0 0.04 0  0.02 0.04 0  0.04 0.04 0  0.06 0.04 0  0.08 0.04 0  0.1 0.04 0  0.12 0.04 0  0.14 0.04 0  0.16 0.04 0  0.18 0.04 0  0.2 0.04 0  0.22 0.04 0  0.24 0.04 0  0.26 0.04 0  0.28 0.04 0  0.3 0.04 0  0.32 0.04 0  0.34 0.04 0  0.36 0.04 0  0.38 0.04 0  0.4 0.04 0  0.42 0.04 0  0.44 0.04 0  0.46 0.04 0  0.48 0.04 0  0.5 0.04 0  0.52 0.04 0  0.54 0.04 0  0.5600000000000001 0.04 0  0.58 0.04 0  0.6 0.04 0  0.62 0.04 0  0.64 0.04 0  0.66 0.04 0  0.68 0.04 0  0.7 0.04 0  0.72 0.04 0  0.74 0.04 0  0.76 0.04 0  0.78 0.04 0  0.8 0.04 0  0.82 0.04 0  0.84 0.04 0  0.86 0.04 0  0.88 0.04 0  0.9 0.04 0  0.92 0.04 0  0.9399999999999999 0.04 0  0.96 0.04 0  0.98 0.04 0  1 0.04 0  0 0.06 0  0.02 0.06 0  0.04 0.06 0  0.06 0.06 0  0.08 0.06 0  0.1 0.06 0  0.12 0.06 0  0.14 0.06 0  0.16 0.06 0  0.18 0.06 0  0.2 0.06 0  0.22 0.06 0  0.24 0.06 0  0.26 0.06 0  0.28 0.06 0  0.3 0.06 0  0.32 0.06 0  0.34 0.06 0  0.36 0.06 0  0.38 0.06 0  0.4 0.06 0  0.42 0.06 0  0.44 0.06 0  0.46 0.06 0  0.48 0.06 0  0.5 0.06 0  0.52 0.06 0  0.54 0.06 0  0.5600000000000001 0.06 0  0.58 0.06 0  0.6 0.06 0  0.62 0.06 0  0.64 0.06 0  0.66 0.06 0  0.68 0.06 0  0.7 0.06 0  0.72 0.06 0  0.74 0.06 0  0.76 0.06 0  0.78 0.06 0  0.8 0.06 0  0.82 0.06 0  0.84 0.06 0  0.86 0.06 0  0.88 0.06 0  0.9 0.06 0  0.92 0.06 0  0.9399999999999999 0.06 0  0.96 0.06 0  0.98 0.06 0  1 0.06 0  0 0.08 0  0.02 0.08 0  0.04 0.08 0  0.06 0.08 0  0.08 0.08 0  0.1 0.08 0  0.12 0.08 0  0.14 0.08 0  0.16 0.08 0  0.18 0.08 0  0.2 0.08 0  0.22 0.08 0  0.24 0.08 0  0.26 0.08 0  0.28 0.08 0  0.3 0.08 0  0.32 0.08 0  0.34 0.08 0  0.36 0.08 0  0.38 0.08 0  0.4 0.08 0  0.42 0.08 0  0.44 0.08 0  0.46 0.08 0  0.48 0.08 0  0.5 0.08 0  0.52 0.08 0  0.54 0.08 0  0.5600000000000001 0.08 0  0.58 0.08 0  0.6 0.08 0  0.62 0.08 0  0.64 0.08 0  0.66 0.08 0  0.68 0.08 0  0.7 0.08 0  0.72 0.08 0  0.74 0.08 0  0.76 0.08 0  0.78 0.08 0  0.8 0.08 0  0.82 0.08 0  0.84 0.08 0  0.86 0.08 0  0.88 0.08 0  0.9 0.08 0  0.92 0.08 0  0.9399999999999999 0.08 0  0.96 0.08 0  0.98 0.08 0  1 0.08 0  0 0.1 0  0.02 0.1 0  0.04 0.1 0  0.06 0.1 0  0.08 0.1 0  0.1 0.1 0  0.12 0.1 0  0.14 0.1 0  0.16 0.1 0  0.18 0.1 0  0.2 0.1 0  0.22 0.1 0  0.24 0.1 0  0.26 0.1 0  0.28 0.1 0  0.3 0.1 0  0.32 0.1 0  0.34 0.1 0  0.36 0.1 0  0.38 0.1 0  0.4 0.1 0  0.42 0.1 0  0.44 0.1 0  0.46 0.1 0  0.48 0.1 0  0.5 0.1 0  0.52 0.1 0  0.54 0.1 0  0.5600000000000001 0.1 0  0.58 0.1 0  0.6 0.1 0  0.62 0.1 0  0.64 0.1 0  0.66 0.1 0  0.68 0.1 0  0.7 0.1 0  0.72 0.1 0  0.74 0.1 0  0.76 0.1 0  0.78 0.1 0  0.8 0.1 0  0.82 0.1 0  0.84 0.1 0  0.86 0.1 0  0.88 0.1 0  0.9 0.1 0  0.92 0.1 0  0.9399999999999999 0.1 0  0.96 0.1 0  0.98 0.1 0  1 0.1 0  0 0.12 0  0.02 0.12 0  0.04 0.12 0  0.06 0.12 0  0.08 0.12 0  0.1 0.12 0  0.12 0.12 0  0.14 0.12 0  0.16 0.12 0  0.18 0.12 0  0.2 0.12 0  0.22 0.12 0  0.24 0.12 0  0.26 0.12 0  0.28 0.12 0  0.3 0.12 0  0.32 0.12 0  0.34 0.12 0  0.36 0.12 0  0.38 0.12 0  0.4 0.12 0  0.42 0.12 0  0.44 0.12 0  0.46 0.12 0  0.48 0.12 0  0.5 0.12 0  0.52 0.12 0  0.54 0.12 0  0.5600000000000001 0.12 0  0.58 0.12 0  0.6 0.12 0  0.62 0.12 0  0.64 0.12 0  0.66 0.12 0  0.68 0.12 0  0.7 0.12 0  0.72 0.12 0  0.74 0.12 0  0.76 0.12 0  0.78 0.12 0  0.8 0.12 0  0.82 0.12 0  0.84 0.12 0  0.86 0.12 0  0.88 0.12 0  0.9 0.12 0  0.92 0.12 0  0.9399999999999999 0.12 0  0.96 0.12 0  0.98 0.12 0  1 0.12 0  0 0.14 0  0.02 0.14 0  0.04 0.14 0  0.06 0.14 0  0.08 0.14 0  0.1 0.14 0  0.12 0.14 0  0.14 0.14 0  0.16 0.14 0  0.18 0.14 0  0.2 0.14 0  0.22 0.14 0  0.24 0.14 0  0.26 0.14 0  0.28 0.14 0  0.3 0.14 0  0.32 0.14 0  0.34 0.14 0  0.36 0.14 0  0.38 0.14 0  0.4 0.14 0  0.42 0.14 0  0.44 0.14 0  0.46 0.14 0  0.48 0.14 0  0.5 0.14 0  0.52 0.14 0  0.54 0.14 0  0.5600000000000001 0.14 0  0.58 0.14 0  0.6 0.14 0  0.62 0.14 0  0.64 0.14 0  0.66 0.14 0  0.68 0.14 0  0.7 0.14 0  0.72 0.14 0  0.74 0.14 0  0.76 0.14 0  0.78 0.14 0  0.8 0.14 0  0.82 0.14 0  0.84 0.14 0  0.86 0.14 0  0.88 0.14 0  0.9 0.14 0  0.92 0.14 0  0.9399999999999999 0.14 0  0.96 0.14 0  0.98 0.14 0  1 0.14 0  0 0.16 0  0.02 0.16 0  0.04 0.16 0  0.06 0.16 0  0.08 0.16 0  0.1 0.16 0  0.12 0.16 0  0.14 0.16 0  0.16 0.16 0  0.18 0.16 0  0.2 0.16 0  0.22 0.16 0  0.24 0.16 0  0.26 0.16 0  0.28 0.16 0  0.3 0.16 0  0.32 0.16 0  0.34 0.16 0  0.36 0.16 0  0.38 0.16 0  0.4 0.16 0  0.42 0.16 0  0.44 0.16 0  0.46 0.16 0  0.48 0.16 0  0.5 0.16 0  0.52 0.16 0  0.54 0.16 0  0.5600000000000001 0.16 0  0.58 0.16 0  0.6 0.16 0  0.62 0.16 0  0.64 0.16 0  0.66 0.16 0  0.68 0.16 0  0.7 0.16 0  0.72 0.16 0  0.74 0.16 0  0.76 0.16 0  0.78 0.16 0  0.8 0.16 0  0.82 0.16 0  0.84 0.16 0  0.86 0.16 0  0.88 0.16 0  0.9 0.16 0  0.92 0.16 0  0.9399999999999999 0.16 0  0.96 0.16 0  0.98 0.16 0  1 0.16 0  0 0.18 0  0.02 0.18 0  0.04 0.18 0  0.06 0.18 0  0.08 0.18 0  0.1 0.18 0  0.12 0.18 0  0.14 0.18 0  0.16 0.18 0  0.18 0.18 0  0.2 0.18 0  0.22 0.18 0  0.24 0.18 0  0.26 0.18 0  0.28 0.18 0  0.3 0.18 0  0.32 0.18 0  0.34 0.18 0  0.36 0.18 0  0.38 0.18 0  0.4 0.18 0  0.42 0.18 0  0.44 0.18 0  0.46 0.18 0  0.48 0.18 0  0.5 0.18 0  0.52 0.18 0  0.54 0.18 0  0.5600000000000001 0.18 0  0.58 0.18 0  0.6 0.18 0  0.62 0.18 0  0.64 0.18 0  0.66 0.18 0  0.68 0.18 0  0.7 0.18 0  0.72 0.18 0  0.74 0.18 0  0.76 0.18 0  0.78 0.18 0  0.8 0.18 0  0.82 0.18 0  0.84 0.18 0  0.86 0.18 0  0.88 0.18 0  0.9 0.18 0  0.92 0.18 0  0.9399999999999999 0.18 0  0.96 0.18 0  0.98 0.18 0  1 0.18 0  0 0.2 0  0.02 0.2 0  0.04 0.2 0  0.06 0.2 0  0.08 0.2 0  0.1 0.2 0  0.12 0.2 0  0.14 0.2 0  0.16 0.2 0  0.18 0.2 0  0.2 0.2 0  0.22 0.2 0  0.24 0.2 0  0.26 0.2 0  0.28 0.2 0  0.3 0.2 0  0.32 0.2 0  0.34 0.2 0  0.36 0.2 0  0.38 0.2 0  0.4 0.2 0  0.42 0.2 0  0.44 0.2 0  0.46 0.2 0  0.48 0.2 0  0.5 0.2 0  0.52 0.2 0  0.54 0.2 0  0.5600000000000001 0.2 0  0.58 0.2 0  0.6 0.2 0  0.62 0.2 0  0.64 0.2 0  0.66 0.2 0  0.68 0.2 0  0.7 0.2 0  0.72 0.2 0  0.74 0.2 0  0.76 0.2 0  0.78 0.2 0  0.8 0.2 0  0.82 0.2 0  0.84 0.2 0  0.86 0.2 0  0.88 0.2 0  0.9 0.2 0  0.92 0.2 0  0.9399999999999999 0.2 0  0.96 0.2 0  0.98 0.2 0  1 0.2 0  0 0.22 0  0.02 0.22 0  0.04 0.22 0  0.06 0.22 0  0.08 0.22 0  0.1 0.22 0  0.12 0.22 0  0.14 0.22 0  0.16 0.22 0  0.18 0.22 0  0.2 0.22 0  0.22 0.22 0  0.24 0.22 0  0.26 0.22 0  0.28 0.22 0  0.3 0.22 0  0.32 0.22 0  0.34 0.22 0  0.36 0.22 0  0.38 0.22 0  0.4 0.22 0  0.42 0.22 0  0.44 0.22 0  0.46 0.22 0  0.48 0.22 0  0.5 0.22 0  0.52 0.22 0  0.54 0.22 0  0.5600000000000001 0.22 0  0.58 0.22 0  0.6 0.22 0  0.62 0.22 0  0.64 0.22 0  0.66 0.22 0  0.68 0.22 0  0.7 0.22 0  0.72 0.22 0  0.74 0.22 0  0.76 0.22 0  0.78 0.22 0  0.8 0.22 0  0.82 0.22 0  0.84 0.22 0  0.86 0.22 0  0.88 0.22 0  0.9 0.22 0  0.92 0.22 0  0.9399999999999999 0.22 0  0.96 0.22 0  0.98 0.22 0  1 0.22 0  0 0.24 0  0.02 0.24 0  0.04 0.24 0  0.06 0.24 0  0.08 0.24 0  0.1 0.24 0  0.12 0.24 0  0.14 0.24 0  0.16 0.24 0  0.18 0.24 0  0.2 0.24 0  0.22 0.24 0  0.24 0.24 0  0.26 0.24 0  0.28 0.24 0  0.3 0.24 0  0.32 0.24 0  0.34 0.24 0  0.36 0.24 0  0.38 0.24 0  0.4 0.24 0  0.42 0.24 0  0.44 0.24 0  0.46 0.24 0  0.48 0.24 0  0.5 0.24 0  0.52 0.24 0  0.54 0.24 0  0.5600000000000001 0.24 0  0.58 0.24 0  0.6 0.24 0  0.62 0.24 0  0.64 0.24 0  0.66 0.24 0  0.68 0.24 0  0.7 0.24 0  0.72 0.24 0  0.74 0.24 0  0.76 0.24 0  0.78 0.24 0  0.8 0.24 0  0.82 0.24 0  0.84 0.24 0  0.86 0.24 0  0.88 0.24 0  0.9 0.24 0  0.92 0.24 0  0.9399999999999999 0.24 0  0.96 0.24 0  0.98 0.24 0  1 0.24 0  0 0.26 0  0.02 0.26 0  0.04 0.26 0  0.06 0.26 0  0.08 0.26 0  0.1 0.26 0  0.12 0.26 0  0.14 0.26 0  0.16 0.26 0  0.18 0.26 0  0.2 0.26 0  0.22 0.26 0  0.24 0.26 0  0.26 0.26 0  0.28 0.26 0  0.3 0.26 0  0.32 0.26 0  0.34 0.26 0  0.36 0.26 0  0.38 0.26 0  0.4 0.26 0  0.42 0.26 0  0.44 0.26 0  0.46 0.26 0  0.48 0.26 0  0.5 0.26 0  0.52 0.26 0  0.54 0.26 0  0.5600000000000001 0.26 0  0.58 0.26 0  0.6 0.26 0  0.62 0.26 0  0.64 0.26 0  0.66 0.26 0  0.68 0.26 0  0.7 0.26 0  0.72 0.26 0  0.74 0.26 0  0.76 0.26 0  0.78 0.26 0  0.8 0.26 0  0.82 0.26 0  0.84 0.26 0  0.86 0.26 0  0.88 0.26 0  0.9 0.26 0  0.92 0.26 0  0.9399999999999999 0.26 0  0.96 0.26 0  0.98 0.26 0  1 0.26 0  0 0.28 0  0.02 0.28 0  0.04 0.28 0  0.06 0.28 0  0.08 0.28 0  0.1 0.28 0  0.12 0.28 0  0.14 0.28 0  0.16 0.28 0  0.18 0.28 0  0.2 0.28 0  0.22 0.28 0  0.24 0.28 0  0.26 0.28 0  0.28 0.28 0  0.3 0.28 0  0.32 0.28 0  0.34 0.28 0  0.36 0.28 0  0.38 0.28 0  0.4 0.28 0  0.42 0.28 0  0.44 0.28 0  0.46 0.28 0  0.48 0.28 0  0.5 0.28 0  0.52 0.28 0  0.54 0.28 0  0.5600000000000001 0.28 0  0.58 0.28 0  0.6 0.28 0  0.62 0.28 0  0.64 0.28 0  0.66 0.28 0  0.68 0.28 0  0.7 0.28 0  0.72 0.28 0  0.74 0.28 0  0.76 0.28 0  0.78 0.28 0  0.8 0.28 0  0.82 0.28 0  0.84 0.28 0  0.86 0.28
[...]
<PointData  Scalars="q_f"> 
<DataArray  type="Float64"  Name="q_f"  format="ascii">9.9999887424371581e-01  9.9999860548117314e-01  9.9999746384381927e-01  9.9999514005986001e-01  9.9999089149666642e-01  9.9998351851061651e-01  9.9997127033915412e-01  9.9995177556540793e-01  9.9992206018613816e-01  9.9987871821110974e-01  9.9981828667868089e-01  9.9973783827755436e-01  9.9963573855655530e-01  9.9951243222132635e-01  9.9937105010022076e-01  9.9921759985435532e-01  9.9906055052103970e-01  9.9890975415334926e-01  9.9877484416493567e-01  9.9866345189634165e-01  9.9857971355597763e-01  9.9852353239480707e-01  9.9849089075292519e-01  9.9847520927224698e-01  9.9846941788108423e-01  9.9846815224305441e-01  9.9846941788132437e-01  9.9847520927208411e-01  9.9849089075288588e-01  9.9852353239476210e-01  9.9857971355570563e-01  9.9866345189652250e-01  9.9877484416480877e-01  9.9890975415327210e-01  9.9906055052099585e-01  9.9921759985444092e-01  9.9937105010025884e-01  9.9951243222155539e-01  9.9963573855656518e-01  9.9973783827758411e-01  9.9981828667893458e-01  9.9987871821115915e-01  9.9992206018609897e-01  9.9995177556553472e-01  9.9997127033917632e-01  9.9998351851050471e-01  9.9999089149705289e-01  9.9999514005984969e-01  9.9999746384410604e-01  9.9999860548097419e-01  9.9999887424371581e-01  9.9999849251091633e-01  9.9999889409039822e-01  9.9999812490830597e-01  9.9999655406581356e-01  9.9999381964969558e-01  9.9998929035008455e-01  9.9998209123482751e-01  9.9997110234059161e-01  9.9995499744851313e-01  9.9993234669159692e-01  9.9990179392287959e-01  9.9986230241553564e-01  9.9981343911234100e-01  9.9975564321444776e-01  9.9969040755990191e-01  9.9962030008906078e-01  9.9954877432501255e-01  9.9947976262978000e-01  9.9941710593196686e-01  9.9936393237690890e-01  9.9932213446411067e-01  9.9929209186000334e-01  9.9927273772337133e-01  9.9926197820184903e-01  9.9925737158202244e-01  9.9925688842060056e-01  9.9925953779423093e-01  9.9926567420991541e-01  9.9927688932813008e-01  9.9929551542018891e-01  9.9932388358356095e-01  9.9936355104592378e-01  9.9941471571341556e-01  9.9947597342388805e-01  9.9954446748966574e-01  9.9961636760252082e-01  9.9968753187815251e-01  9.9975417438780934e-01  9.9981338394298658e-01  9.9986340268139351e-01  9.9990364945885979e-01  9.9993453775983188e-01  9.9995717439729481e-01  9.9997303001637616e-01  9.9998365245649434e-01  9.9999046215302589e-01  9.9999463704518177e-01  9.9999707037053431e-01  9.9999836913704987e-01  9.9999885056970084e-01  9.9999849251091633e-01  9.9999665769955104e-01  9.9999773766484890e-01  9.9999630705843434e-01  9.9999330508590267e-01  9.9998817660549211e-01  9.9997986869606581e-01  9.9996697261987222e-01  9.9994778066212997e-01  9.9992040417516903e-01  9.9988298508634588e-01  9.9983399575663168e-01  9.9977259048751499e-01  9.9969894244447977e-01  9.9961448140090614e-01  9.9952195047815173e-01  9.9942522892833907e-01  9.9932891910707489e-01  9.9923775656059377e-01  9.9915595511594246e-01  9.9908662709469342e-01  9.9903141206687440e-01  9.9899040554591145e-01  9.9896241092009552e-01  9.9894546013333463e-01  9.9893748025008555e-01  9.9893694203185190e-01  9.9894332533852637e-01  9.9895727761797126e-01  9.9898041776038371e-01  9.9901482946082421e-01  9.9906237137606435e-01  9.9912398230512123e-01  9.9919916316583746e-01  9.9928577174354538e-01  9.9938018346101543e-01  9.9947777552540651e-01  9.9957361068925554e-01  9.9966315390112470e-01  9.9974286095961318e-01  9.9981052742825227e-01  9.9986535932326548e-01  9.9990779946752806e-01  9.9993919368436768e-01  9.9996139868941947e-01  9.9997642067639825e-01  9.9998614121028118e-01  9.9999214869108433e-01  9.9999565880396579e-01  9.9999747702654518e-01  9.9999792589889491e-01  9.9999665769955104e-01  9.9999217726204781e-01  9.9999493303278342e-01  9.9999183761991850e-01  9.9998522053690908e-01  9.9997392009030639e-01  9.9995564893842737e-01  9.9992735931090049e-01  9.9988538886538092e-01  9.9982573832203914e-01  9.9974454820512504e-01  9.9963875491507281e-01  9.9950683622709224e-01  9.9934949489812197e-01  9.9917009734210827e-01  9.9897470301731872e-01  9.9877159564312179e-01  9.9857034534680822e-01  9.9838055857913333e-01  9.9821056931540342e-01  9.9806635797633436e-01  9.9795094127660322e-01  9.9786436874391837e-01  9.9780431989037632e-01  9.9776715631490509e-01  9.9774917773654725e-01  9.9774778269616138e-01  9.9776225406175045e-01  9.9779397411773374e-01  9.9784600741097285e-01  9.9792214247582622e-01  9.9802561975187432e-01  9.9815785773539256e-01  9.9831749885054177e-01  9.9850002413947370e-01  9.9869804687465580e-01  9.9890222427967523e-01  9.9910257142045433e-01  9.9928986762285055e-01  9.9945684119322797e-01  9.9959890029386400e-01  9.9971431530758070e-01  9.9980390302544242e-01  9.9987037066073248e-01  9.9991752238955323e-01  9.9994951274221278e-01  9.9997026918975618e-01  9.9998312799423061e-01  9.9999065201325965e-01  9.9999452752330875e-01  9.9999535785594496e-01  9.9999217726204781e-01  9.9998216612655022e-01  9.9998894870524302e-01  9.9998246035662930e-01  9.9996827186763382e-01  9.9994400720815457e-01  9.9990479048673853e-01  9.9984412159171077e-01  9.9975421917547180e-01  9.9962663450338118e-01  9.9945328401460654e-01  9.9922784977183610e-01  9.9894734539946628e-01  9.9861351841000257e-01  9.9823370277627999e-01  9.9782078979330657e-01  9.9739215943347326e-01  9.9696767098859707e-01  9.9656707416776480e-01  9.9620738175440549e-01  9.9590077884848427e-01  9.9565351996261131e-01  9.9546602630289138e-01  9.9533411566825569e-01  9.9525104958249033e-01  9.9520991620025190e-01  9.9520580616737475e-01  9.9523728667270817e-01  9.9530682811334070e-01  9.9542006481617129e-01  9.9558403474300361e-01  9.9580478792144878e-01  9.9608492265034276e-01  9.9642165594753440e-01  9.9680593623314406e-01  9.9722287065669335e-01  9.9765341636775851e-01  9.9807696120201872e-01  9.9847419448495178e-01  9.9882961680850613e-01  9.9913317333783591e-01  9.9938076526698594e-01  9.9957370047587046e-01  9.9971738699923163e-01  9.9981968789784248e-01  9.9988933417874970e-01  9.9993467067450881e-01  9.9996284450163064e-01  9.9997937893145328e-01  9.9998790657165781e-01  9.9998963591318568e-01  9.9998216612655022e-01  9.9996079917869529e-01  9.9997675229109462e-01  9.9996372633493658e-01  9.9993448212205116e-01  9.9988440349612484e-01  9.9980352216712431e-01  9.9967854520362243e-01  9.9949363073850839e-01  9.9923169382914045e-01  9.9887655296086131e-01  9.9841579301294747e-01  9.9784390685631608e-01  9.9716502959775644e-01  9.9639448731584601e-01  9.9555852597060746e-01  9.9469197221066596e-01  9.9383411309452430e-01  9.9302359481351299e-01  9.9229344610340375e-01  9.9166731465983149e-01  9.9115767563127721e-01  9.9076626054730854e-01  9.9048644081836990e-01  9.9030691890757949e-01  9.9021588245997139e-01  9.9020474584043117e-01  9.9027070846630028e-01  9.9041758238353839e-01  9.9065466770897759e-01  9.9099384738521767e-01  9.9144546862824579e-01  9.9201389925037375e-01  9.9269381144679669e-01  9.9346818121086200e-01  9.9430865937260049e-01  9.9517840906365840e-01  9.9603685472212911e-01  9.9684526098803516e-01  9.9757184803666832e-01  9.9819533205751954e-01  9.9870627909655962e-01  9.9910628464736495e-01  9.9940552149380613e-01  9.9961948161808623e-01  9.9976573496120102e-01  9.9986130272352880e-01  9.9992090820672719e-01  9.9995601212278262e-01  9.9997415536076839e-01  9.9997764757732543e-01  9.9996079917869529e-01  9.9991702571017438e-01  9.9995287718472148e-01  9.9992785348152613e-01  9.9986996354136071e-01  9.9977071805992279e-01  9.9961061212126023e-01  9.9936363856468202e-01  9.9899898452459190e-01  9.9848371006456793e-01  9.9778703294720661e-01  9.9688592776675633e-01  9.9577112611390417e-01  9.9445214467878962e-01  9.9295984492928990e-01  9.9134538647116277e-01  9.8967526322428356e-01  9.8802318897603469e-01  9.8646055407343791e-01  9.8504762847126082e-01  9.8382744031180802e-01  9.8282342027206193e-01  9.8204083802215603e-01  9.8147118903522235e-01  9.8109825393181549e-01  9.8090451285961300e-01  9.8087676282179537e-01  9.8101000250326609e-01  9.8130889268417476e-01  9.8178642224955426e-01  9.8245984199007985e-01  9.8334444891096973e-01  9.8444635053101348e-01  9.8575580104294591e-01  9.8724289620284866e-01  9.8885713169630485e-01  9.9053148263880519e-01  9.9219042730586338e-01  9.9376014635476961e-01  9.9517846096518359e-01  9.9640220346045894e-01  9.9741056885847190e-01  9.9820421124771030e-01  9.9880096384567718e-01  9.9922972531584553e-01  9.9952414482836971e-01  9.9971735333882472e-01  9.9983834351857359e-01  9.9990987182906643e-01  9.9994691826432791e-01  9.9995361198080046e-01  9.9991702571017438e-01  9.9983092420526243e-01  9.9990796832338324e-01  9.9986200609326126e-01  9.9975196265257660e-01  9.9956312488701926e-01  9.9925898517094736e-01  9.9879089491756257e-01  9.9810164882176577e-01  9.9713078387776444e-01  9.9582279371029137e-01  9.9413760097173520e-01  9.9206145060614237e-01  9.8961558359313140e-01  9.8685994506336083e-01  9.8389002223164546e-01  9.8082662158685074e-01  9.7780049460438323e-01  9.7493541902210767e-01  9.7233387129221449e-01  9.7006846458722562e-01  9.6818027488361302e-01  9.6668300950305008e-01  9.6557066642130174e-01  9.6482625362758245e-01  9.6442987996682306e-01  9.6436534763674908e-01  9.6462478981297417e-01  9.6521091883714727e-01  9.6613636927103563e-01  9.6741969359451219e-01  9.6907794802305058e-01  9.7111658767039155e-01  9.7351852402835271e-01  9.7623528985391461e-01  9.7918360351183642e-01  9.8224965042222545e-01  9.8530118321612348e-01  9.8820493366306716e-01  9.9084499139738702e-01  9.9313753644109459e-01  9.9503864379445284e-01  9.9654414405439273e-01  9.9768278029153390e-01  9.9850537982824106e-01  9.9907313548271581e-01  9.9944749373697717e-01  9.9968296613969965e-01  9.9982275054169123e-01  9.9989529357703344e-01  9.9990741127017890e-01  9.9983092420526243e-01  9.9966836593691055e-01  9.9982680743532792e-01  9.9974617405727273e-01  9.9954531331011087e-01  9.9920035531349893e-01  9.9864597036585401e-01  9.9779520145046652e-01  9.9654676985414337e-01  9.9479518538428324e-01  9.9244587299447495e-01  9.8943390011378951e-01  9.8574274274034379e-01  9.8141820928248180e-01  9.7657270935352980e-01  9.7137692077567728e-01  9.6603934765972443e-01  9.6077824351227203e-01  9.5579326620096594e-01  9.5124449338211314e-01  9.4724356201076920e-01  9.4385688118655453e-01  9.4111654544563839e-01  9.3903296519080592e-01  9.3760478346519427e-01  9.3682480421088266e-01  9.3668319341485029e-01  9.3716990931316480e-01  9.3827742812270221e-01  9.4000329932734961e-01  9.4235067411381612e-01  9.4532429054869294e-01  9.4892012788745816e-01  9.5310944148370935e-01  9.5782144007511250e-01  9.6293150074048228e-01  9.6826149443540299e-01  9.7359503990493201e-01  9.7870496127490081e-01  9.8338561864144636e-01  9.8748119987014793e-01  9.9090289494233674e-01  9.9363192812024048e-01  9.9570981774965461e-01  9.9722036409903747e-01  9.9826896606097582e-01  9.9896406026507822e-01  9.9940342632094481e-01  9.9966541688938804e-01  9.9980164396441173e-01  9.9982227486246489e-01  9.9966836593691055e-01  9.9937390565657946e-01  9.9968590680546066e-01  9.9955096247836228e-01  9.9919892457627146e-01  9.9859393822864273e-01  9.9762430009266501e-01  9.9614158368030903e-01  9.9397499080245288e-01  9.9094995696339383e-01  9.8691491644628748e-01  9.8177331547402302e-01  9.7551421896228852e-01  9.6823282645404563e-01  9.6013282920527909e-01  9.5150646067904487e-01  9.4269479158622327e-01  9.3403820320908160e-01  9.2583172150318815e-01  9.1829890493139998e-01  9.1159053374742638e-01  9.0580353675479819e-01  9.0100721655224514e-01  8.9726273334166173e-01  8.9462819734837717e-01  8.9315097805044275e-01  8.9285524995004584e-01  8.9373372699725850e-01  8.9574915338975269e-01  8.9884588084318817e-01  9.0296649100837045e-01  9.0806436669473911e-01  9.1410262816327215e-01  9.2103488100176256e-01  9.2877269641415827e-01  9.3715370484960303e-01  9.4592677376551271e-01  9.5476471900111992e-01  9.6330354563350584e-01  9.7119650894953236e-01  9.7816633488851767e-01  9.8404103130262444e-01  9.8876570613011461e-01  9.9239104139811540e-01  9.9504537033214480e-01  9.9690002470523154e-01  9.9813676684908792e-01  9.9892276306574856e-01  9.9939373033100998e-01  9.9963908816139024e-01  9.9967192102769264e-01  9.9937390565657946e-01  9.9886239112157871e-01  9.9945097608282707e-01  9.9923586936777842e-01  9.9864339955961701e-01  9.9762467571924507e-01  9.9599732880071101e-01  9.9351961560649427e-01  9.8991756849535173e-01  9.8491802525136740e-01  9.7829415649891782e-01  9.6991777606427443e-01  9.5980645206280113e-01  9.4815051781351323e-01  9.3530700584545434e-01  9.2175536530352464e-01  9.0802253017165990e-01  8.9459837433633549e-01  8.8187011566296547e-01  8.7009957537580573e-01  8.5944951472731168e-01  8.5004214383165222e-01  8.4201737584506209e-01  8.3556035913621318e-01  8.3088606170782819e-01  8.2819137529878406e-01  8.2759929976727264e-01  8.2912045774506538e-01  8.3264826941324688e-01  8.3799104046157558e-01  8.4492980258747818e-01  8.5327789218186878e-01  8.6291328403830536e-01  8.7376405279540892e-01  8.8574983286005371e-01  8.9870619861290901e-01  9.1232967681494093e-01  9.2617191132872478e-01  9.3968851217514715e-01  9.5232485801049005e-01  9.6360870712089353e-01  9.7322104370356721e-01  9.8102819432239885e-01  9.8707305239592069e-01  9.9153527646076223e-01  9.9467633896265817e-01  9.9678493853135886e-01  9.9813313357205435e-01  9.9894526760991065e-01  9.9936918274053776e-01  9.9941754533042115e-01  9.9886239112157871e-01  9.9801073237172455e-01  9.9907486418930225e-01  9.9874890470766808e-01  9.9779132307766405e-01  9.9614406473484762e-01  9.9352306422914693e-01  9.8955297610770943e-01  9.8381660846830510e-01  9.7591150914739988e-01  9.6552447404834185e-01  9.5251326887116261e-01  9.3697475013307119e-01  9.1927465473294279e-01  9.0001893286156520e-01  8.7996149324832562e-01  8.5986681947603527e-01  8.4037020145725339e-01  8.2188974777099832e-01  8.0463047683993405e-01  7.8868151945776943e-01  7.7416074605125540e-01  7.6133447857875181e-01  7.5065143295837911e-01  7.4267358424120788e-01  7.3793544418127810e-01  7.3679074828113211e-01  7.3930465904231180e-01  7.4523038045070666e-01  7.5408168993179592e-01  7.6528011153178399e-01  7.7832250781514589e-01  7.9289785455972694e-01  8.0889823063290300e-01  8.2631795262791108e-01  8.4509103465300461e-01  8.6494692616558422e-01  8.8535108801475748e-01  9.0555239038846302e-01  9.2471189914949525e-01  9.4206041145008657e-01  9.5703146292183894e-01  9.6933508701840654e-01  9.7896304494293851e-01  9.8613803252735588e-01  9.9123157595318145e-01  9.9467672002531771e-01  9.9689428826880311e-01  9.9823790346671715e-01  9.9894065244569907e-01  9.9900544645018863e-01  9.9801073237172455e-01  9.9665251133531463e-01  9.9849689647829809e-01  9.9802855205491681e-01  9.9654190620112071e-01  9.9398352008749002e-01  9.8993163401986317e-01  9.8383129144342352e-01  9.7508093878466395e-01  9.6312602644866452e-01  9.4757646421697961e-01  9.2832874097557094e-01  9.0565776375756890e-01  8.8023855271270490e-01  8.5306750507137241e-01  8.2528059538148890e-01  7.9790894282674185e-01  7.7165550085197265e-01  7.4679263485907954e-01  7.2324488569672907e-01  7.0083884619155346e-01  6.7961431031906294e-01  6.6005106300198757e-01  6.4310078150800942e-01  6.3000416426604278e-01  6.2196653081698761e-01  6.1981335757681943e-01  6.2374276452457200e-01  6.3325713496862168e-01  6.4730586257620149e-01  6.6460394254736377e-01  6.8401644905769654e-01  7.0485486828833099e-01  7.2695780442495939e-01  7.5052635632550813e-01  7.7580292015193020e-01  8.0275111386068443e-01  8.3087642611143930e-01  8.5924425078510480e-01  8.8666106872282024e-01  9.1193058650752512e-01  9.3409065429332172e-01  9.5256502085101991e-01  9.6720550328790622e-01  9.7823760669492055e-01  9.8614580634827598e-01  9.9154045954266934e-01  9.9503892013144246e-01  9.9717217050809170e-01  9.9829031291316472e-01  9.9836650865156684e-01  9.9665251133531463e-01  9.9457933257829334e-01  9.9764475396190833e-01  9.9700894108007543e-01  9.9479125825469350e-01  9.9097333182091429e-01  9.8495891292099758e-01  9.7596770534411792e-01  9.6318130572511129e-01  9.4589279912218305e-01  9.2368538141221979e-01  8.9660702932373781e-01  8.6528434931396248e-01  8.3091293111768516e-01  7.9507975353949223e-01  7.5942276024826749e-01  7.2521020042624140e-01  6.9299834315963249e-01  6.6254453937962410e-01  6.3306855611085977e-01  6.0379189134164613e-01  5.7453590431665480e-01  5.4611581777615981e-01  5.2035143443294474e-01  4.9967922565236789e-01  4.8650797387149491e-01  4.8253828948680544e-01  4.8825876295041076e-01  5.0277902354025861e-01  5.2407786782037258e-01  5.4961658633200627e-01  5.7711397085425475e-01  6.0518251334655637e-01  6.3356437766034945e-01  6.6288364258567101e-01  6.9405969219453789e-01  7.2767216950540869e-01  7.6354802838365710e-01  8.0069326941809138e-01  8.3752715551721579e-01  8.7227822577685554e-01  9.0338470712037788e-01  9.2978185529239155e-01  9.5102260081640388e-01  9.6723917648909952e-01  9.7899517783343004e-01  9.8709254715956496e-01  9.9238767995722543e-01  9.9563913985719521e-01  9.9734736856744910e-01  9.9741904621035826e-01  9.9457933257829334e-01  9.9155345268259654e-01  9.9644002580278235e-01  9.9562857452681464e-01  9.9244840817916180e-01  9.8697105332326629e-01  9.7839486111966334e-01  9.6567811064826703e-01  9.4777557313842553e-01  9.2386968172100603e-01  8.9363301406656648e-01  8.5746750355316026e-01  8.1663035844724863e-01  7.7315033674739286e-01  7.2947094700453574e-01  6.8784414026393370e-01  6.4963488333550445e-01  6.1482584489640191e-01  5.8201943338422735e-01  5.4904651997760623e-01  5.1399060728287804e-01  4.7622187460663229e-01  4.3702542718356358e-01  3.9956849873764316e-01  3.6819876066747576e-01  3.4730436368411055e-01  3.4009356573072586e-01  3.4765231085139781e-01  3.6857449044728546e-01  3.9933747924854912e-01  4.3536814139838803e-01  4.7245650216367369e-01  5.0798419062499567e-01  5.4147691122079467e-01  5.7427831056557299e-01  6.0855464584342445e-01  6.4613567193543975e-01  6.8768721778201447e-01  7.3245369174174457e-01  7.7852443882390310e-01  8.2341220892529199e-01  8.6469586551597433e-01  9.0052921422894405e-01  9.2990929277088763e-01  9.5269362822827663e-01  9.6942842757302250e-01  9.8108267286420292e-01  9.8877496193655090e-01  9.9353473934152092e-01  9.9604187765355134e-01  9.9607642878120117e-01  9.9155345268259654e-01  9.8733555719791755e-01  9.9480816232630920e-01  9.9384204979848534e-01  9.8945543171205141e-01  9.8189576715328153e-01  9.7013936231749498e-01  9.5286809530400340e-01  9.2883819254257283e-01  8.9722576919585972e-01  8.5799999427619011e-01  8.1223642808784280e-01  7.6223153614411576e-01  7.1127391374240545e-01  6.6298619790013902e-01  6.2030153210518602e-01  5.8437218122277701e-01  5.5391134008783016e-01  5.2542645449641212e-01  4.9441269257614096e-01  4.5708114570456276e-01  4.1197155628145293e-01  3.6089626293387589e-01  3.0888304546819956e-01  2.6307521121600408e-01  2.3089562035189573e-01  2.1801328849022591e-01  2.2668732431374414e-01  2.5500149827898011e-01  2.9733613618353438e-01  3.4605203532322265e-01  3.9386936000408418e-01  4.3607607318638852e-01  4.7169331728807123e-01  5.0313357834354488e-01  5.3461137957319249e-01  5.7016055143188571e-01  6.1212687810929434e-01  6.6055475612993808e-01  7.1342370348431061e-01  7.6743997580893653e-01  8.1901825922910132e-01  8.6513393512410230e-01  9.0384654096552597e-01  9.3444158159351487e-01  9.5726024885193284e-01  9.7335184721878820e-01  9.8408348830539694e-01  9.9077978818596590e-01  9.9431726790606356e-01  9.9426023498090399e-01  9.8733555719791755e-01  9.8172896540193155e-01  9.9269269112906655e-01  9.9163313297109379e-01  9.8580814616202050e-01  9.7576142386926812e-01  9.6025299397924735e-01  9.3770516079605237e-01  9.0675515892782999e-01  8.6675465530619211e-01  8.1828314159944382e-01  7.6353903495316500e-01  7.0639918148777336e-01  6.5193777330142200e-01  6.0530004439662466e-0