<?xml version="1.0"?>
<VTKFile type="UnstructuredGrid"  version="0.1"  >
<UnstructuredGrid>
<Piece  NumberOfPoints="2601" NumberOfCells="5000">
<Points>
<DataArray  type="Float64"  NumberOfComponents="3"  format="ascii">0 0 0  0.02 0 0  0.04 0 0  0.06 0 0  0.08 0 0  0.1 0 0  0.12 0 0  0.14 0 0  0.16 0 0  0.18 0 0  0.2 0 0  0.22 0 0  0.24 0 0  0.26 0 0  0.28 0 0  0.3 0 0  0.32 0 0  0.34 0 0  0.36 0 0  0.38 0 0  0.4 0 0  0.42 0 0  0.44 0 0  0.46 0 0  0.48 0 0  0.5 0 0  0.52 0 0  0.54 0 0  0.5600000000000001 0 0  0.58 0 0  0.6 0 0  0.62 0 0  0.64 0 0  0.66 0 0  0.68 0 0  0.7 0 0  0.72 0 0  0.74 0 0  0.76 0 0  0.78 0 0  0.8 0 0  0.82 0 0  0.84 0 0  0.86 0 0  0.88 0 0  0.9 0 0  0.92 0 0  0.9399999999999999 0 0  0.96 0 0  0.98 0 0  1 0 0  0 0.02 0  0.02 0.02 0  0.04 0.02 0  0.06 0.02 0  0.08 0.02 0  0.1 0.02 0  0.12 0.02 0  0.14 0.02 0  0.16 0.02 0  0.18 0.02 0  0.2 0.02 0  0.22 0.02 0  0.24 0.02 0  0.26 0.02 0  0.28 0.02 0  0.3 0.02 0  0.32 0.02 0  0.34 0.02 0  0.36 0.02 0  0.38 0.02 0  0.4 0.02 0  0.42 0.02 0  0.44 0.02 0  0.46 0.02 0  0.48 0.02 0  0.5 0.02 0  0.52 0.02 0  0.54 0.02 0  0.5600000000000001 0.02 0  0.58 0.02 0  0.6 0.02 0  0.62 0.02 0  0.64 0.02 0  0.66 0.02 0  0.68 0.02 0  0.7 0.02 0  0.72 0.02 0  0.74 0.02 0  0.76 0.02 0  0.78 0.02 0  0.8 0.02 0  0.82 0.02 0  0.84 0.02 0  0.86 0.02 0  0.88 0.02 0  0.9 0.02 0  0.92 0.02 0  0.9399999999999999 0.02 0  0.96 0.02 0  0.98 0.02 0  1 0.02 0  0 0.04 0  0.02 0.04 0  0.04 0.04 0  0.06 0.04 0  0.08 0.04 0  0.1 0.04 0  0.12 0.04 0  0.14 0.04 0  0.16 0.04 0  0.18 0.04 0  0.2 0.04 0  0.22 0.04 0  0.24 0.04 0  0.26 0.04 0  0.28 0.04 0  0.3 0.04 0  0.32 0.04 0  0.34 0.04 0  0.36 0.04 0  0.38 0.04 0  0.4 0.04 0  0.42 0.04 0  0.44 0.04 0  0.46 0.04 0  0.48 0.04 0  0.5 0.04 0  0.52 0.04 0  0.54 0.04 0  0.5600000000000001 0.04 0  0.58 0.04 0  0.6 0.04 0  0.62 0.04 0  0.64 0.04 0  0.66 0.04 0  0.68 0.04 0  0.7 0.04 0  0.72 0.04 0  0.74 0.04 0  0.76 0.04 0  0.78 0.04 0  0.8 0.04 0  0.82 0.04 0  0.84 0.04 0  0.86 0.04 0  0.88 0.04 0  0.9 0.04 0  0.92 0.04 0  0.9399999999999999 0.04 0  0.96 0.04 0  0.98 0.04 0  1 0.04 0  0 0.06 0  0.02 0.06 0  0.04 0.06 0  0.06 0.06 0  0.08 0.06 0  0.1 0.06 0  0.12 0.06 0  0.14 0.06 0  0.16 0.06 0  0.18 0.06 0  0.2 0.06 0  0.22 0.06 0  0.24 0.06 0  0.26 0.06 0  0.28 0.06 0  0.3 0.06 0  0.32 0.06 0  0.34 0.06 0  0.36 0.06 0  0.38 0.06 0  0.4 0.06 0  0.42 0.06 0  0.44 0.06 0  0.46 0.06 0  0.48 0.06 0  0.5 0.06 0  0.52 0.06 0  0.54 0.06 0  0.5600000000000001 0.06 0  0.58 0.06 0  0.6 0.06 0  0.62 0.06 0  0.64 0.06 0  0.66 0.06 0  0.68 0.06 0  0.7 0.06 0  0.72 0.06 0  0.74 0.06 0  0.76 0.06 0  0.78 0.06 0  0.8 0.06 0  0.82 0.06 0  0.84 0.06 0  0.86 0.06 0  0.88 0.06 0  0.9 0.06 0  0.92 0.06 0  0.9399999999999999 0.06 0  0.96 0.06 0  0.98 0.06 0  1 0.06 0  0 0.08 0  0.02 0.08 0  0.04 0.08 0  0.06 0.08 0  0.08 0.08 0  0.1 0.08 0  0.12 0.08 0  0.14 0.08 0  0.16 0.08 0  0.18 0.08 0  0.2 0.08 0  0.22 0.08 0  0.24 0.08 0  0.26 0.08 0  0.28 0.08 0  0.3 0.08 0  0.32 0.08 0  0.34 0.08 0  0.36 0.08 0  0.38 0.08 0  0.4 0.08 0  0.42 0.08 0  0.44 0.08 0  0.46 0.08 0  0.48 0.08 0  0.5 0.08 0  0.52 0.08 0  0.54 0.08 0  0.5600000000000001 0.08 0  0.58 0.08 0  0.6 0.08 0  0.62 0.08 0  0.64 0.08 0  0.66 0.08 0  0.68 0.08 0  0.7 0.08 0  0.72 0.08 0  0.74 0.08 0  0.76 0.08 0  0.78 0.08 0  0.8 0.08 0  0.82 0.08 0  0.84 0.08 0  0.86 0.08 0  0.88 0.08 0  0.9 0.08 0  0.92 0.08 0  0.9399999999999999 0.08 0  0.96 0.08 0  0.98 0.08 0  1 0.08 0  0 0.1 0  0.02 0.1 0  0.04 0.1 0  0.06 0.1 0  0.08 0.1 0  0.1 0.1 0  0.12 0.1 0  0.14 0.1 0  0.16 0.1 0  0.18 0.1 0  0.2 0.1 0  0.22 0.1 0  0.24 0.1 0  0.26 0.1 0  0.28 0.1 0  0.3 0.1 0  0.32 0.1 0  0.34 0.1 0  0.36 0.1 0  0.38 0.1 0  0.4 0.1 0  0.42 0.1 0  0.44 0.1 0  0.46 0.1 0  0.48 0.1 0  0.5 0.1 0  0.52 0.1 0  0.54 0.1 0  0.5600000000000001 0.1 0  0.58 0.1 0  0.6 0.1 0  0.62 0.1 0  0.64 0.1 0  0.66 0.1 0  0.68 0.1 0  0.7 0.1 0  0.72 0.1 0  0.74 0.1 0  0.76 0.1 0  0.78 0.1 0  0.8 0.1 0  0.82 0.1 0  0.84 0.1 0  0.86 0.1 0  0.88 0.1 0  0.9 0.1 0  0.92 0.1 0  0.9399999999999999 0.1 0  0.96 0.1 0  0.98 0.1 0  1 0.1 0  0 0.12 0  0.02 0.12 0  0.04 0.12 0  0.06 0.12 0  0.08 0.12 0  0.1 0.12 0  0.12 0.12 0  0.14 0.12 0  0.16 0.12 0  0.18 0.12 0  0.2 0.12 0  0.22 0.12 0  0.24 0.12 0  0.26 0.12 0  0.28 0.12 0  0.3 0.12 0  0.32 0.12 0  0.34 0.12 0  0.36 0.12 0  0.38 0.12 0  0.4 0.12 0  0.42 0.12 0  0.44 0.12 0  0.46 0.12 0  0.48 0.12 0  0.5 0.12 0  0.52 0.12 0  0.54 0.12 0  0.5600000000000001 0.12 0  0.58 0.12 0  0.6 0.12 0  0.62 0.12 0  0.64 0.12 0  0.66 0.12 0  0.68 0.12 0  0.7 0.12 0  0.72 0.12 0  0.74 0.12 0  0.76 0.12 0  0.78 0.12 0  0.8 0.12 0  0.82 0.12 0  0.84 0.12 0  0.86 0.12 0  0.88 0.12 0  0.9 0.12 0  0.92 0.12 0  0.9399999999999999 0.12 0  0.96 0.12 0  0.98 0.12 0  1 0.12 0  0 0.14 0  0.02 0.14 0  0.04 0.14 0  0.06 0.14 0  0.08 0.14 0  0.1 0.14 0  0.12 0.14 0  0.14 0.14 0  0.16 0.14 0  0.18 0.14 0  0.2 0.14 0  0.22 0.14 0  0.24 0.14 0  0.26 0.14 0  0.28 0.14 0  0.3 0.14 0  0.32 0.14 0  0.34 0.14 0  0.36 0.14 0  0.38 0.14 0  0.4 0.14 0  0.42 0.14 0  0.44 0.14 0  0.46 0.14 0  0.48 0.14 0  0.5 0.14 0  0.52 0.14 0  0.54 0.14 0  0.5600000000000001 0.14 0  0.58 0.14 0  0.6 0.14 0  0.62 0.14 0  0.64 0.14 0  0.66 0.14 0  0.68 0.14 0  0.7 0.14 0  0.72 0.14 0  0.74 0.14 0  0.76 0.14 0  0.78 0.14 0  0.8 0.14 0  0.82 0.14 0  0.84 0.14 0  0.86 0.14 0  0.88 0.14 0  0.9 0.14 0  0.92 0.14 0  0.9399999999999999 0.14 0  0.96 0.14 0  0.98 0.14 0  1 0.14 0  0 0.16 0  0.02 0.16 0  0.04 0.16 0  0.06 0.16 0  0.08 0.16 0  0.1 0.16 0  0.12 0.16 0  0.14 0.16 0  0.16 0.16 0  0.18 0.16 0  0.2 0.16 0  0.22 0.16 0  0.24 0.16 0  0.26 0.16 0  0.28 0.16 0  0.3 0.16 0  0.32 0.16 0  0.34 0.16 0  0.36 0.16 0  0.38 0.16 0  0.4 0.16 0  0.42 0.16 0  0.44 0.16 0  0.46 0.16 0  0.48 0.16 0  0.5 0.16 0  0.52 0.16 0  0.54 0.16 0  0.5600000000000001 0.16 0  0.58 0.16 0  0.6 0.16 0  0.62 0.16 0  0.64 0.16 0  0.66 0.16 0  0.68 0.16 0  0.7 0.16 0  0.72 0.16 0  0.74 0.16 0  0.76 0.16 0  0.78 0.16 0  0.8 0.16 0  0.82 0.16 0  0.84 0.16 0  0.86 0.16 0  0.88 0.16 0  0.9 0.16 0  0.92 0.16 0  0.9399999999999999 0.16 0  0.96 0.16 0  0.98 0.16 0  1 0.16 0  0 0.18 0  0.02 0.18 0  0.04 0.18 0  0.06 0.18 0  0.08 0.18 0  0.1 0.18 0  0.12 0.18 0  0.14 0.18 0  0.16 0.18 0  0.18 0.18 0  0.2 0.18 0  0.22 0.18 0  0.24 0.18 0  0.26 0.18 0  0.28 0.18 0  0.3 0.18 0  0.32 0.18 0  0.34 0.18 0  0.36 0.18 0  0.38 0.18 0  0.4 0.18 0  0.42 0.18 0  0.44 0.18 0  0.46 0.18 0  0.48 0.18 0  0.5 0.18 0  0.52 0.18 0  0.54 0.18 0  0.5600000000000001 0.18 0  0.58 0.18 0  0.6 0.18 0  0.62 0.18 0  0.64 0.18 0  0.66 0.18 0  0.68 0.18 0  0.7 0.18 0  0.72 0.18 0  0.74 0.18 0  0.76 0.18 0  0.78 0.18 0  0.8 0.18 0  0.82 0.18 0  0.84 0.18 0  0.86 0.18 0  0.88 0.18 0  0.9 0.18 0  0.92 0.18 0  0.9399999999999999 0.18 0  0.96 0.18 0  0.98 0.18 0  1 0.18 0  0 0.2 0  0.02 0.2 0  0.04 0.2 0  0.06 0.2 0  0.08 0.2 0  0.1 0.2 0  0.12 0.2 0  0.14 0.2 0  0.16 0.2 0  0.18 0.2 0  0.2 0.2 0  0.22 0.2 0  0.24 0.2 0  0.26 0.2 0  0.28 0.2 0  0.3 0.2 0  0.32 0.2 0  0.34 0.2 0  0.36 0.2 0  0.38 0.2 0  0.4 0.2 0  0.42 0.2 0  0.44 0.2 0  0.46 0.2 0  0.48 0.2 0  0.5 0.2 0  0.52 0.2 0  0.54 0.2 0  0.5600000000000001 0.2 0  0.58 0.2 0  0.6 0.2 0  0.62 0.2 0  0.64 0.2 0  0.66 0.2 0  0.68 0.2 0  0.7 0.2 0  0.72 0.2 0  0.74 0.2 0  0.76 0.2 0  0.78 0.2 0  0.8 0.2 0  0.82 0.2 0  0.84 0.2 0  0.86 0.2 0  0.88 0.2 0  0.9 0.2 0  0.92 0.2 0  0.9399999999999999 0.2 0  0.96 0.2 0  0.98 0.2 0  1 0.2 0  0 0.22 0  0.02 0.22 0  0.04 0.22 0  0.06 0.22 0  0.08 0.22 0  0.1 0.22 0  0.12 0.22 0  0.14 0.22 0  0.16 0.22 0  0.18 0.22 0  0.2 0.22 0  0.22 0.22 0  0.24 0.22 0  0.26 0.22 0  0.28 0.22 0  0.3 0.22 0  0.32 0.22 0  0.34 0.22 0  0.36 0.22 0  0.38 0.22 0  0.4 0.22 0  0.42 0.22 0  0.44 0.22 0  0.46 0.22 0  0.48 0.22 0  0.5 0.22 0  0.52 0.22 0  0.54 0.22 0  0.5600000000000001 0.22 0  0.58 0.22 0  0.6 0.22 0  0.62 0.22 0  0.64 0.22 0  0.66 0.22 0  0.68 0.22 0  0.7 0.22 0  0.72 0.22 0  0.74 0.22 0  0.76 0.22 0  0.78 0.22 0  0.8 0.22 0  0.82 0.22 0  0.84 0.22 0  0.86 0.22 0  0.88 0.22 0  0.9 0.22 0  0.92 0.22 0  0.9399999999999999 0.22 0  0.96 0.22 0  0.98 0.22 0  1 0.22 0  0 0.24 0  0.02 0.24 0  0.04 0.24 0  0.06 0.24 0  0.08 0.24 0  0.1 0.24 0  0.12 0.24 0  0.14 0.24 0  0.16 0.24 0  0.18 0.24 0  0.2 0.24 0  0.22 0.24 0  0.24 0.24 0  0.26 0.24 0  0.28 0.24 0  0.3 0.24 0  0.32 0.24 0  0.34 0.24 0  0.36 0.24 0  0.38 0.24 0  0.4 0.24 0  0.42 0.24 0  0.44 0.24 0  0.46 0.24 0  0.48 0.24 0  0.5 0.24 0  0.52 0.24 0  0.54 0.24 0  0.5600000000000001 0.24 0  0.58 0.24 0  0.6 0.24 0  0.62 0.24 0  0.64 0.24 0  0.66 0.24 0  0.68 0.24 0  0.7 0.24 0  0.72 0.24 0  0.74 0.24 0  0.76 0.24 0  0.78 0.24 0  0.8 0.24 0  0.82 0.24 0  0.84 0.24 0  0.86 0.24 0  0.88 0.24 0  0.9 0.24 0  0.92 0.24 0  0.9399999999999999 0.24 0  0.96 0.24 0  0.98 0.24 0  1 0.24 0  0 0.26 0  0.02 0.26 0  0.04 0.26 0  0.06 0.26 0  0.08 0.26 0  0.1 0.26 0  0.12 0.26 0  0.14 0.26 0  0.16 0.26 0  0.18 0.26 0  0.2 0.26 0  0.22 0.26 0  0.24 0.26 0  0.26 0.26 0  0.28 0.26 0  0.3 0.26 0  0.32 0.26 0  0.34 0.26 0  0.36 0.26 0  0.38 0.26 0  0.4 0.26 0  0.42 0.26 0  0.44 0.26 0  0.46 0.26 0  0.48 0.26 0  0.5 0.26 0  0.52 0.26 0  0.54 0.26 0  0.5600000000000001 0.26 0  0.58 0.26 0  0.6 0.26 0  0.62 0.26 0  0.64 0.26 0  0.66 0.26 0  0.68 0.26 0  0.7 0.26 0  0.72 0.26 0  0.74 0.26 0  0.76 0.26 0  0.78 0.26 0  0.8 0.26 0  0.82 0.26 0  0.84 0.26 0  0.86 0.26 0  0.88 0.26 0  0.9 0.26 0  0.92 0.26 0  0.9399999999999999 0.26 0  0.96 0.26 0  0.98 0.26 0  1 0.26 0  0 0.28 0  0.02 0.28 0  0.04 0.28 0  0.06 0.28 0  0.08 0.28 0  0.1 0.28 0  0.12 0.28 0  0.14 0.28 0  0.16 0.28 0  0.18 0.28 0  0.2 0.28 0  0.22 0.28 0  0.24 0.28 0  0.26 0.28 0  0.28 0.28 0  0.3 0.28 0  0.32 0.28 0  0.34 0.28 0  0.36 0.28 0  0.38 0.28 0  0.4 0.28 0  0.42 0.28 0  0.44 0.28 0  0.46 0.28 0  0.48 0.28 0  0.5 0.28 0  0.52 0.28 0  0.54 0.28 0  0.5600000000000001 0.28 0  0.58 0.28 0  0.6 0.28 0  0.62 0.28 0  0.64 0.28 0  0.66 0.28 0  0.68 0.28 0  0.7 0.28 0  0.72 0.28 0  0.74 0.28 0  0.76 0.28 0  0.78 0.28 0  0.8 0.28 0  0.82 0.28 0  0.84 0.28 0  0.86 0.28
[...]
<PointData  Scalars="q_f"> 
<DataArray  type="Float64"  Name="q_f"  format="ascii">9.9999887426390477e-01  9.9999860550731356e-01  9.9999746389275834e-01  9.9999514015956881e-01  9.9999089169510880e-01  9.9998351889029402e-01  9.9997127103669170e-01  9.9995177680523872e-01  9.9992206233989156e-01  9.9987872190180715e-01  9.9981829295179758e-01  9.9973784883652750e-01  9.9963575601442534e-01  9.9951246026094864e-01  9.9937109338262098e-01  9.9921766355377206e-01  9.9906063947787516e-01  9.9890987184380553e-01  9.9877499182358587e-01  9.9866362814406240e-01  9.9857991469905161e-01  9.9852375327851906e-01  9.9849112582460708e-01  9.9847545345706668e-01  9.9846966699640249e-01  9.9846840289831018e-01  9.9846966699676232e-01  9.9847545345694333e-01  9.9849112582439270e-01  9.9852375327861775e-01  9.9857991469912610e-01  9.9866362814446608e-01  9.9877499182332274e-01  9.9890987184377900e-01  9.9906063947798385e-01  9.9921766355376662e-01  9.9937109338273800e-01  9.9951246026089258e-01  9.9963575601451016e-01  9.9973784883631722e-01  9.9981829295210556e-01  9.9987872190164084e-01  9.9992206233960990e-01  9.9995177680560288e-01  9.9997127103678263e-01  9.9998351888998771e-01  9.9999089169557975e-01  9.9999514015924240e-01  9.9999746389291055e-01  9.9999860550665487e-01  9.9999887426390477e-01  9.9999849254680762e-01  9.9999889416220533e-01  9.9999812506525032e-01  9.9999655439891233e-01  9.9999382031607276e-01  9.9998929159375904e-01  9.9998209337821986e-01  9.9997110570432546e-01  9.9995500214454802e-01  9.9993235223754395e-01  9.9990179869722429e-01  9.9986230305735302e-01  9.9981343010616663e-01  9.9975561696398674e-01  9.9969035518204463e-01  9.9962021292397940e-01  9.9954864580563407e-01  9.9947958989498686e-01  9.9941689053474969e-01  9.9936367974866414e-01  9.9932185228124681e-01  9.9929178792507212e-01  9.9927241816495105e-01  9.9926164665668482e-01  9.9925702961804963e-01  9.9925653698313910e-01  9.9925917906350481e-01  9.9926531310603195e-01  9.9927653401720884e-01  9.9929517656066713e-01  9.9932357254159654e-01  9.9936327769844413e-01  9.9941448658231957e-01  9.9947579070182846e-01  9.9954432913106572e-01  9.9961626828548544e-01  9.9968746440682332e-01  9.9975413109526112e-01  9.9981335777536839e-01  9.9986338783527906e-01  9.9990364159124856e-01  9.9993453389298170e-01  9.9995717265409112e-01  9.9997302930928622e-01  9.9998365220836394e-01  9.9999046208590603e-01  9.9999463703875080e-01  9.9999707037982621e-01  9.9999836915029938e-01  9.9999885058881111e-01  9.9999849254680762e-01  9.9999665780603686e-01  9.9999773788672974e-01  9.9999630755665880e-01  9.9999330616510307e-01  9.9998817880549429e-01  9.9997987287681078e-01  9.9996697996337114e-01  9.9994779244129028e-01  9.9992042111879698e-01  9.9988300617068004e-01  9.9983401649118175e-01  9.9977260109394750e-01  9.9969892672310356e-01  9.9961441726925537e-01  9.9952181282457153e-01  9.9942499452686528e-01  9.9932857223978533e-01  9.9923729324135613e-01  9.9915538404584570e-01  9.9908596670230687e-01  9.9903068466259570e-01  9.9898963086357795e-01  9.9896160154909708e-01  9.9894462052604405e-01  9.9893660956395203e-01  9.9893603961384114e-01  9.9894239664743856e-01  9.9895633816166929e-01  9.9897949332394198e-01  9.9901395236093649e-01  9.9906157407519824e-01  9.9912329073066808e-01  9.9919859201690908e-01  9.9928532302511797e-01  9.9937984812877223e-01  9.9947753709548171e-01  9.9957344935927339e-01  9.9966305003594036e-01  9.9974279737935501e-01  9.9981049047252613e-01  9.9986533896739116e-01  9.9990778886944220e-01  9.9993918848455510e-01  9.9996139629378289e-01  9.9997641964402895e-01  9.9998614079712933e-01  9.9999214854031782e-01  9.9999565875970220e-01  9.9999747703048536e-01  9.9999792594129355e-01  9.9999665780603686e-01  9.9999217758979908e-01  9.9999493369720249e-01  9.9999183912798006e-01  9.9998522384398592e-01  9.9997392690255682e-01  9.9995566198911146e-01  9.9992738235063516e-01  9.9988542590915208e-01  9.9982579152028672e-01  9.9974461391539649e-01  9.9963881820585843e-01  9.9950686525504662e-01  9.9934943788948549e-01  9.9916988527488959e-01  9.9897425976274090e-01  9.9877085421209599e-01  9.9856926524975442e-01  9.9837913737957018e-01  9.9820884287447298e-01  9.9806438843290313e-01  9.9794879720867957e-01  9.9786210534130582e-01  9.9780196677293054e-01  9.9776471737221695e-01  9.9774664272800961e-01  9.9774514605335585e-01  9.9775953355364377e-01  9.9779122170005552e-01  9.9784330727370785e-01  9.9791959639837680e-01  9.9802332527678417e-01  9.9815588747450967e-01  9.9831588809541250e-01  9.9849876960400530e-01  9.9869711464927946e-01  9.9890156228705917e-01  9.9910212163755230e-01  9.9928957513216443e-01  9.9945665929467509e-01  9.9959879232239679e-01  9.9971425431039362e-01  9.9980387034072171e-01  9.9987035411159186e-01  9.9991751450057087e-01  9.9994950921385939e-01  9.9997026771506736e-01  9.9998312742384476e-01  9.9999065182188163e-01  9.9999452750717555e-01  9.9999535797273964e-01  9.9999217758979908e-01  9.9998216710444399e-01  9.9998895060401760e-01  9.9998246468985297e-01  9.9996828145380701e-01  9.9994402706495467e-01  9.9990482860342178e-01  9.9984418872348069e-01  9.9975432616023707e-01  9.9962678517985293e-01  9.9945346244051436e-01  9.9922800275656798e-01  9.9894736530990269e-01  9.9861323507397826e-01  9.9823289413062544e-01  9.9781921602071588e-01  9.9738961503971046e-01  9.9696403812246770e-01  9.9656235548327021e-01  9.9620169697698724e-01  9.9589432426625313e-01  9.9564650645691666e-01  9.9545862045163458e-01  9.9532640613065904e-01  9.9524305018119175e-01  9.9520160349884967e-01  9.9519717722569512e-01  9.9522841469231582e-01  9.9529789262840707e-01  9.9541134147134747e-01  9.9557584615191319e-01  9.9579743428492595e-01  9.9607861919307650e-01  9.9641649890251671e-01  9.9680190406148428e-01  9.9721985203665930e-01  9.9765124908041913e-01  9.9807546780952883e-01  9.9847320746142720e-01  9.9882899229837474e-01  9.9913279620140760e-01  9.9938054869567183e-01  9.9957358268085583e-01  9.9971732655102818e-01  9.9981965873630707e-01  9.9988932099527505e-01  9.9993466510367113e-01  9.9996284230988941e-01  9.9997937815751547e-01  9.9998790642490287e-01  9.9998963621010151e-01  9.9998216710444399e-01  9.9996080198223147e-01  9.9997675743967407e-01  9.9996373811381378e-01  9.9993450832027564e-01  9.9988445787292057e-01  9.9980362632377640e-01  9.9967872725585971e-01  9.9949391626832740e-01  9.9923208352447912e-01  9.9887698355437560e-01  9.9841608553783667e-01  9.9784371816173489e-01  9.9716383395409403e-01  9.9639161557300615e-01  9.9555327299592911e-01  9.9468375180120794e-01  9.9382260838267544e-01  9.9300884180374460e-01  9.9227580986511033e-01  9.9164736362112127e-01  9.9113600449136996e-01  9.9074333206149834e-01  9.9046250419807513e-01  9.9028202991494996e-01  9.9019001443385068e-01  9.9017795088531413e-01  9.9024326752818614e-01  9.9039007956264224e-01  9.9062794782428054e-01  9.9096886429226094e-01  9.9142308249592936e-01  9.9199470339209239e-01  9.9267804899627854e-01  9.9345576386812329e-01  9.9429925620340409e-01  9.9517155659683609e-01  9.9603205078465362e-01  9.9684202745025663e-01  9.9756976512008466e-01  9.9819405319456189e-01  9.9870553389590755e-01  9.9910587423754871e-01  9.9940530867315158e-01  9.9961937805544332e-01  9.9976568780020869e-01  9.9986128265894392e-01  9.9992090022957369e-01  9.9995600919497230e-01  9.9997415458887173e-01  9.9997764823217306e-01  9.9996080198223147e-01  9.9991703339668181e-01  9.9995289035870349e-01  9.9992788362377516e-01  9.9987003076602310e-01  9.9977085736882298e-01  9.9961087727779530e-01  9.9936409604143694e-01  9.9899968492739666e-01  9.9848462206553390e-01  9.9778793218144901e-01  9.9688625540358833e-01  9.9576986536563894e-01  9.9444779096200986e-01  9.9295054040135378e-01  9.9132923556498409e-01  9.8965075645240597e-01  9.8798958469290232e-01  9.8641805603029820e-01  9.8499727223221856e-01  9.8377073010442795e-01  9.8276186781718144e-01  9.8197558623262959e-01  9.8140285104207925e-01  9.8102700682099497e-01  9.8083040240098673e-01  9.8080011277423751e-01  9.8093177647459640e-01  9.8123084709407526e-01  9.8171095032017408e-01  9.8238953999302259e-01  9.8328157243702752e-01  9.8439238130517015e-01  9.8571127545313952e-01  9.8720750443478389e-01  9.8882997798534700e-01  9.9051136792343064e-01  9.9217606570915451e-01  9.9375029774803314e-01  9.9517200373382564e-01  9.9639817534749620e-01  9.9740818910903251e-01  9.9820288523658884e-01  9.9880026945298672e-01  9.9922938460365629e-01  9.9952398856885039e-01  9.9971728641545143e-01  9.9983831665954870e-01  9.9990986165847073e-01  9.9994691503182442e-01  9.9995361310755349e-01  9.9991703339668181e-01  9.9983094427007657e-01  9.9990799996459201e-01  9.9986207836713437e-01  9.9975212385709067e-01  9.9956345724292694e-01  9.9925961092250248e-01  9.9879195372432461e-01  9.9810321378669986e-01  9.9713267952999907e-01  9.9582430282387591e-01  9.9413710979610237e-01  9.9205616978422584e-01  9.8960154259713362e-01  9.8683242160640705e-01  9.8384440363358638e-01  9.8075946202048370e-01  9.7771036727390193e-01  9.7482319034807141e-01  9.7220226037484736e-01  9.6992107541034078e-01  9.6802051668084532e-01  9.6651332951060231e-01  9.6539233716959461e-01  9.6463972761282912e-01  9.6423556201389593e-01  9.6416453338446440e-01  9.6442043305000524e-01  9.6500786697682450e-01  9.6594085338860203e-01  9.6723818523165650e-01  9.6891582781520336e-01  9.7097717688568130e-01  9.7340281741851087e-01  9.7614234181876092e-01  9.7911122899141745e-01  9.8219507602516054e-01  9.8526146806016501e-01  9.8817718432218626e-01  9.9082648224516368e-01  9.9312581461767624e-01  9.9503162864624417e-01  9.9654019202085542e-01  9.9768069122903413e-01  9.9850434644135855e-01  9.9907265811636670e-01  9.9944728787796489e-01  9.9968288275063066e-01  9.9982271811007739e-01  9.9989528187141197e-01  9.9990741212165879e-01  9.9983094427007657e-01  9.9966841563809927e-01  9.9982687833718431e-01  9.9974633556984449e-01  9.9954567283352447e-01  9.9920108992759038e-01  9.9864733116148707e-01  9.9779744035021356e-01  9.9654991074916488e-01  9.9479855790583993e-01  9.9244739706388241e-01  9.8942927536541980e-01  9.8572490890340891e-01  9.8137755390503656e-01  9.7649833599390568e-01  9.7125882171165800e-01  9.6587077243738384e-01  9.6055728909416549e-01  9.5552296953756988e-01  9.5093137812200135e-01  9.4689530115671583e-01  9.4348008949553930e-01  9.4071553968943389e-01  9.3860980150242213e-01  9.3716038219916453e-01  9.3636073371525697e-01  9.3620358769460499e-01  9.3668285860202660e-01  9.3779512726405556e-01  9.3954056883099424e-01  9.4192220630060064e-01  9.4494169715452969e-01  9.4859003458135405e-01  9.5283329715635412e-01  9.5759675347559448e-01  9.6275356120084732e-01  9.6812469344540508e-01  9.7349349197937196e-01  9.7863267176926705e-01  9.8333659458827305e-01  9.8744970767650220e-01  9.9088381834763684e-01  9.9362106923715521e-01  9.9570402552259940e-01  9.9721747559690099e-01  9.9826762177487371e-01  9.9896347632881999e-01  9.9940318753164703e-01  9.9966532170650690e-01  9.9980160607995938e-01  9.9982227092429243e-01  9.9966841563809927e-01  9.9937402218980442e-01  9.9968605394890964e-01  9.9955129681559851e-01  9.9919966599835774e-01  9.9859543297423037e-01  9.9762700515973057e-01  9.9614585660340393e-01  9.9398051256520370e-01  9.9095462516822830e-01  9.8691323868444003e-01  9.8175474505322835e-01  9.7546234634568674e-01  9.6812647402377583e-01  9.5994950397411216e-01  9.5122736947574382e-01  9.4230945947513467e-01  9.3354658980553840e-01  9.2524285699601583e-01  9.1762676311233626e-01  9.1084908196350844e-01  9.0500305243181278e-01  9.0015311091085071e-01  8.9635688227577703e-01  8.9367193688992774e-01  8.9214877850896812e-01  8.9181814776227109e-01  8.9268137854156115e-01  8.9470925226617848e-01  8.9785038684086294e-01  9.0204563199495613e-01  9.0724075088391465e-01  9.1338798890286454e-01  9.2043062071998261e-01  9.2827325883702227e-01  9.3675040923450659e-01  9.4561011975549136e-01  9.5452479730015249e-01  9.6312956485190149e-01  9.7107662996258559e-01  9.7808828477093768e-01  9.8399320855780659e-01  9.8873821198599299e-01  9.9237624403429381e-01  9.9503792971080574e-01  9.9689653451822569e-01  9.9813523878188659e-01  9.9892213188984535e-01  9.9939347260903433e-01  9.9963897676803382e-01  9.9967189552025160e-01  9.9937402218980442e-01  9.9886264943152925e-01  9.9945125612871921e-01  9.9923650520569685e-01  9.9864480255272470e-01  9.9762745037097245e-01  9.9600218366127735e-01  9.9352682066780473e-01  9.8992561293218906e-01  9.8492119375028708e-01  9.7827923789517834e-01  9.6986107542443034e-01  9.5967322802661559e-01  9.4789891089273859e-01  9.3489665440258596e-01  9.2115781064490521e-01  9.0722845695232557e-01  8.9361785877823829e-01  8.8072592005430805e-01  8.6881719514907796e-01  8.5804867330440437e-01  8.4853283462285511e-01  8.4040102631125824e-01  8.3383469264284904e-01  8.2905157361516124e-01  8.2625784821446890e-01  8.2559114340307438e-01  8.2707909804731172e-01  8.3062952134052292e-01  8.3605686573193638e-01  8.4313663842193509e-01  8.5166600289268291e-01  8.6150175264698414e-01  8.7255342613762366e-01  8.8473005721866127e-01  8.9786445100709200e-01  9.1165376109623608e-01  9.2564901478169392e-01  9.3930241392935876e-01  9.5205474213517371e-01  9.6343057133491883e-01  9.7311068041370341e-01  9.8096411085110002e-01  9.8703824210134050e-01  9.9151761681304729e-01  9.9466798321819372e-01  9.9678124786177180e-01  9.9813159220729830e-01  9.9894462249223115e-01  9.9936888235959676e-01  9.9941744798816157e-01  9.9886264943152925e-01  9.9801127371114495e-01  9.9907534563077793e-01  9.9875000195102426e-01  9.9779373114085490e-01  9.9614869581972243e-01  9.9353075993524587e-01  9.8956324195159762e-01  9.8382474804242215e-01  9.7590376940615509e-01  9.6547199410059314e-01  9.5236768803206895e-01  9.3667002339742378e-01  9.1873858259599850e-01  8.9919266230950035e-01  8.7881819317275489e-01  8.5841822879453389e-01  8.3865620184063450e-01  8.1995735317824858e-01  8.0251465542268052e-01  7.8639641025230367e-01  7.7170164719260848e-01  7.5868615094966940e-01  7.4779835203089040e-01  7.3960999965978313e-01  7.3467483629651398e-01  7.3337379837353722e-01  7.3580261756397680e-01  7.4173998967543209e-01  7.5071067515107803e-01  7.6212687144739633e-01  7.7545728631566990e-01  7.9035377451119670e-01  8.0667697970729491e-01  8.2440614274473112e-01  8.4347561815023842e-01  8.6361985542447250e-01  8.8430331793719452e-01  9.0476519362966024e-01  9.2415304962397127e-01  9.4168717242285616e-01  9.5679758227152578e-01  9.6919783085349143e-01  9.7888771842282707e-01  9.8609943136945766e-01  9.9121312789609017e-01  9.9466848790616014e-01  9.9689080687824538e-01  9.9823640759642851e-01  9.9893990503461594e-01  9.9900514725911360e-01  9.9801127371114495e-01  9.9665358550845862e-01  9.9849762384307561e-01  9.9803023328095308e-01  9.9654558050492903e-01  9.9399028433224512e-01  9.8994191464717318e-01  9.8384217564197696e-01  9.7508060235049787e-01  9.6308496644529606e-01  9.4743783804163939e-01  9.2800418311835053e-01  9.0503753232317030e-01  8.7922057925004615e-01  8.5159663093154203e-01  8.2337473372668335e-01  7.9564960102023241e-01  7.6914365969527421e-01  7.4409912399015821e-01  7.2038748407875797e-01  6.9779243077350450e-01  6.7633451195173500e-01  6.5649114379202633e-01  6.3921838612952875e-01  6.2576674697622392e-01  6.1736312767973156e-01  6.1487196344277961e-01  6.1854488008810871e-01  6.2793921380626705e-01  6.4204185546734371e-01  6.5957092665083750e-01  6.7935456354161550e-01  7.0064087288416643e-01  7.2320917143348440e-01  7.4723270285166388e-01  7.7295883123559017e-01  8.0036545021188288e-01  8.2895739736763452e-01  8.5777883469952720e-01  8.8560561589659081e-01  9.1121623287007536e-01  9.3363727822586329e-01  9.5229560290006432e-01  9.6705580350373865e-01  9.7815994465994616e-01  9.8610823582312546e-01  9.9152348666191215e-01  9.9503163659258531e-01  9.9716895029498220e-01  9.9828858927219699e-01  9.9836570924921009e-01  9.9665358550845862e-01  9.9458135638364986e-01  9.9764566111124420e-01  9.9701112538870473e-01  9.9479603865919275e-01  9.9098145216085920e-01  9.8496899228215773e-01  9.7597116441666065e-01  9.6315262328865547e-01  9.4577559324689620e-01  9.2338000497153661e-01  8.9597254428650630e-01  8.6417006594004497e-01  8.2922181871343736e-01  7.9283565908379305e-01  7.5678730388017124e-01  7.2241324456663947e-01  6.9021597630915965e-01  6.5981647180640612e-01  6.3031698874889497e-01  6.0090708190856312e-01  5.7143747208951445e-01  5.4274273712214061e-01  5.1661488084803064e-01  4.9543884270570648e-01  4.8159829195650761e-01  4.7683311527151945e-01  4.8174463631061698e-01  4.9560417159798087e-01  5.1654527426653474e-01  5.4210954145795187e-01  5.6998060980898035e-01  5.9864058946846466e-01  6.2768563922955167e-01  6.5766031792425472e-01  6.8948686529749359e-01  7.2377810012550847e-01  7.6036779651156117e-01  7.9822806850961803e-01  8.3572445142095009e-01  8.7103887109572475e-01  9.0258535723342759e-01  9.2929901730281605e-01  9.5074991333176995e-01  9.6709543406218035e-01  9.7892455287518787e-01  9.8706015018640603e-01  9.9237353401625417e-01  9.9563268656297443e-01  9.9734367149253367e-01  9.9741713155270517e-01  9.9458135638364986e-01  9.9155708683962362e-01  9.9644077728415226e-01  9.9563067736807331e-01  9.9245312889084958e-01  9.8697748192074863e-01  9.7839708025241412e-01  9.6565655885837776e-01  9.4768201530387286e-01  9.2360870133127593e-01  8.9305227878364402e-01  8.5637986216367379e-01  8.1488926644879545e-01  7.7076763374349688e-01  7.2670407535434156e-01  6.8514431537176601e-01  6.4742598016517638e-01  6.1325943717758724e-01  5.8092972498524753e-01  5.4815886818029103e-01  5.1317336768386457e-01  4.7552384306579903e-01  4.3647391005518071e-01  3.9893891308458446e-01  3.6695232778314929e-01  3.4471676153482861e-01  3.3549534617178906e-01  3.4069647671089115e-01  3.5943079297792541e-01  3.8869575030426429e-01  4.2420938024664695e-01  4.6169718551431249e-01  4.9819042589851870e-01  5.3280978851855731e-01  5.6666667819338590e-01  6.0191328553968326e-01  6.4045713796683146e-01  6.8300465106862973e-01  7.2877152719774707e-01  7.7578192093377341e-01  8.2148599500255448e-01  8.6342450472418031e-01  8.9974300416104125e-01  9.2945497165472180e-01  9.5244886845727650e-01  9.6930569220560536e-01  9.8102527331859279e-01  9.8874937287797771e-01  9.9352265979891052e-01  9.9603448020058705e-01  9.9607225395332633e-01  9.9155708683962362e-01  9.8734180293397056e-01  9.9480792003632390e-01  9.9384255063462668e-01  9.8945713073475206e-01  9.8189365073474955e-01  9.7011852469321591e-01  9.5279071224118861e-01  9.2862371955893330e-01  8.9673268640912107e-01  8.5703205365371626e-01  8.1060875021712897e-01  7.5991675628806810e-01  7.0857765212726997e-01  6.6059310372555158e-01  6.1901960921722099e-01  5.8464547770406639e-01  5.5552302023147493e-01  5.2777600511163214e-01  4.9717804718106096e-01  4.6059796551276233e-01  4.1689545545055851e-01  3.6742818252165393e-01  3.1623305990589134e-01  2.6952453690814959e-01  2.3430481927591679e-01  2.1650823365625366e-01  2.1935072192667998e-01  2.4232473563200421e-01  2.8111619059389464e-01  3.2869316122657577e-01  3.7746755186666164e-01  4.2178892056209932e-01  4.5969813597288894e-01  4.9307889827364609e-01  5.2611359959336956e-01  5.6300314549711428e-01  6.0621626149566898e-01  6.5583030579402879e-01  7.0980551052371943e-01  7.6480883684010559e-01  8.1721564455070594e-01  8.6397767306192030e-01  9.0315529655126248e-01  9.3405761892693406e-01  9.5706240549840782e-01  9.7325703114725393e-01  9.8404016663854221e-01  9.9075857944513623e-01  9.9430342438412422e-01  9.9425187413128024e-01  9.8734180293397056e-01  9.8173927521722704e-01  9.9268984131617177e-01  9.9162908683722861e-01  9.8580125857575140e-01  9.7573869415916348e-01  9.6018431394222459e-01  9.3752618880131766e-01  9.0634647914608302e-01  8.6593509089542586e-01  8.1685400168093625e-01  7.6142197294742686e-01  7.0386228827566288e-01  6.4977214365369296e-01  6.0466688134816138e-0