<?xml version="1.0"?>
<VTKFile type="UnstructuredGrid"  version="0.1"  >
<UnstructuredGrid>
<Piece  NumberOfPoints="2601" NumberOfCells="5000">
<Points>
<DataArray  type="Float64"  NumberOfComponents="3"  format="ascii">0 0 0  0.02 0 0  0.04 0 0  0.06 0 0  0.08 0 0  0.1 0 0  0.12 0 0  0.14 0 0  0.16 0 0  0.18 0 0  0.2 0 0  0.22 0 0  0.24 0 0  0.26 0 0  0.28 0 0  0.3 0 0  0.32 0 0  0.34 0 0  0.36 0 0  0.38 0 0  0.4 0 0  0.42 0 0  0.44 0 0  0.46 0 0  0.48 0 0  0.5 0 0  0.52 0 0  0.54 0 0  0.5600000000000001 0 0  0.58 0 0  0.6 0 0  0.62 0 0  0.64 0 0  0.66 0 0  0.68 0 0  0.7 0 0  0.72 0 0  0.74 0 0  0.76 0 0  0.78 0 0  0.8 0 0  0.82 0 0  0.84 0 0  0.86 0 0  0.88 0 0  0.9 0 0  0.92 0 0  0.9399999999999999 0 0  0.96 0 0  0.98 0 0  1 0 0  0 0.02 0  0.02 0.02 0  0.04 0.02 0  0.06 0.02 0  0.08 0.02 0  0.1 0.02 0  0.12 0.02 0  0.14 0.02 0  0.16 0.02 0  0.18 0.02 0  0.2 0.02 0  0.22 0.02 0  0.24 0.02 0  0.26 0.02 0  0.28 0.02 0  0.3 0.02 0  0.32 0.02 0  0.34 0.02 0  0.36 0.02 0  0.38 0.02 0  0.4 0.02 0  0.42 0.02 0  0.44 0.02 0  0.46 0.02 0  0.48 0.02 0  0.5 0.02 0  0.52 0.02 0  0.54 0.02 0  0.5600000000000001 0.02 0  0.58 0.02 0  0.6 0.02 0  0.62 0.02 0  0.64 0.02 0  0.66 0.02 0  0.68 0.02 0  0.7 0.02 0  0.72 0.02 0  0.74 0.02 0  0.76 0.02 0  0.78 0.02 0  0.8 0.02 0  0.82 0.02 0  0.84 0.02 0  0.86 0.02 0  0.88 0.02 0  0.9 0.02 0  0.92 0.02 0  0.9399999999999999 0.02 0  0.96 0.02 0  0.98 0.02 0  1 0.02 0  0 0.04 0  0.02 0.04 0  0.04 0.04 0  0.06 0.04 0  0.08 0.04 0  0.1 0.04 0  0.12 0.04 0  0.14 0.04 0  0.16 0.04 0  0.18 0.04 0  0.2 0.04 0  0.22 0.04 0  0.24 0.04 0  0.26 0.04 0  0.28 0.04 0  0.3 0.04 0  0.32 0.04 0  0.34 0.04 0  0.36 0.04 0  0.38 0.04 0  0.4 0.04 0  0.42 0.04 0  0.44 0.04 0  0.46 0.04 0  0.48 0.04 0  0.5 0.04 0  0.52 0.04 0  0.54 0.04 0  0.5600000000000001 0.04 0  0.58 0.04 0  0.6 0.04 0  0.62 0.04 0  0.64 0.04 0  0.66 0.04 0  0.68 0.04 0  0.7 0.04 0  0.72 0.04 0  0.74 0.04 0  0.76 0.04 0  0.78 0.04 0  0.8 0.04 0  0.82 0.04 0  0.84 0.04 0  0.86 0.04 0  0.88 0.04 0  0.9 0.04 0  0.92 0.04 0  0.9399999999999999 0.04 0  0.96 0.04 0  0.98 0.04 0  1 0.04 0  0 0.06 0  0.02 0.06 0  0.04 0.06 0  0.06 0.06 0  0.08 0.06 0  0.1 0.06 0  0.12 0.06 0  0.14 0.06 0  0.16 0.06 0  0.18 0.06 0  0.2 0.06 0  0.22 0.06 0  0.24 0.06 0  0.26 0.06 0  0.28 0.06 0  0.3 0.06 0  0.32 0.06 0  0.34 0.06 0  0.36 0.06 0  0.38 0.06 0  0.4 0.06 0  0.42 0.06 0  0.44 0.06 0  0.46 0.06 0  0.48 0.06 0  0.5 0.06 0  0.52 0.06 0  0.54 0.06 0  0.5600000000000001 0.06 0  0.58 0.06 0  0.6 0.06 0  0.62 0.06 0  0.64 0.06 0  0.66 0.06 0  0.68 0.06 0  0.7 0.06 0  0.72 0.06 0  0.74 0.06 0  0.76 0.06 0  0.78 0.06 0  0.8 0.06 0  0.82 0.06 0  0.84 0.06 0  0.86 0.06 0  0.88 0.06 0  0.9 0.06 0  0.92 0.06 0  0.9399999999999999 0.06 0  0.96 0.06 0  0.98 0.06 0  1 0.06 0  0 0.08 0  0.02 0.08 0  0.04 0.08 0  0.06 0.08 0  0.08 0.08 0  0.1 0.08 0  0.12 0.08 0  0.14 0.08 0  0.16 0.08 0  0.18 0.08 0  0.2 0.08 0  0.22 0.08 0  0.24 0.08 0  0.26 0.08 0  0.28 0.08 0  0.3 0.08 0  0.32 0.08 0  0.34 0.08 0  0.36 0.08 0  0.38 0.08 0  0.4 0.08 0  0.42 0.08 0  0.44 0.08 0  0.46 0.08 0  0.48 0.08 0  0.5 0.08 0  0.52 0.08 0  0.54 0.08 0  0.5600000000000001 0.08 0  0.58 0.08 0  0.6 0.08 0  0.62 0.08 0  0.64 0.08 0  0.66 0.08 0  0.68 0.08 0  0.7 0.08 0  0.72 0.08 0  0.74 0.08 0  0.76 0.08 0  0.78 0.08 0  0.8 0.08 0  0.82 0.08 0  0.84 0.08 0  0.86 0.08 0  0.88 0.08 0  0.9 0.08 0  0.92 0.08 0  0.9399999999999999 0.08 0  0.96 0.08 0  0.98 0.08 0  1 0.08 0  0 0.1 0  0.02 0.1 0  0.04 0.1 0  0.06 0.1 0  0.08 0.1 0  0.1 0.1 0  0.12 0.1 0  0.14 0.1 0  0.16 0.1 0  0.18 0.1 0  0.2 0.1 0  0.22 0.1 0  0.24 0.1 0  0.26 0.1 0  0.28 0.1 0  0.3 0.1 0  0.32 0.1 0  0.34 0.1 0  0.36 0.1 0  0.38 0.1 0  0.4 0.1 0  0.42 0.1 0  0.44 0.1 0  0.46 0.1 0  0.48 0.1 0  0.5 0.1 0  0.52 0.1 0  0.54 0.1 0  0.5600000000000001 0.1 0  0.58 0.1 0  0.6 0.1 0  0.62 0.1 0  0.64 0.1 0  0.66 0.1 0  0.68 0.1 0  0.7 0.1 0  0.72 0.1 0  0.74 0.1 0  0.76 0.1 0  0.78 0.1 0  0.8 0.1 0  0.82 0.1 0  0.84 0.1 0  0.86 0.1 0  0.88 0.1 0  0.9 0.1 0  0.92 0.1 0  0.9399999999999999 0.1 0  0.96 0.1 0  0.98 0.1 0  1 0.1 0  0 0.12 0  0.02 0.12 0  0.04 0.12 0  0.06 0.12 0  0.08 0.12 0  0.1 0.12 0  0.12 0.12 0  0.14 0.12 0  0.16 0.12 0  0.18 0.12 0  0.2 0.12 0  0.22 0.12 0  0.24 0.12 0  0.26 0.12 0  0.28 0.12 0  0.3 0.12 0  0.32 0.12 0  0.34 0.12 0  0.36 0.12 0  0.38 0.12 0  0.4 0.12 0  0.42 0.12 0  0.44 0.12 0  0.46 0.12 0  0.48 0.12 0  0.5 0.12 0  0.52 0.12 0  0.54 0.12 0  0.5600000000000001 0.12 0  0.58 0.12 0  0.6 0.12 0  0.62 0.12 0  0.64 0.12 0  0.66 0.12 0  0.68 0.12 0  0.7 0.12 0  0.72 0.12 0  0.74 0.12 0  0.76 0.12 0  0.78 0.12 0  0.8 0.12 0  0.82 0.12 0  0.84 0.12 0  0.86 0.12 0  0.88 0.12 0  0.9 0.12 0  0.92 0.12 0  0.9399999999999999 0.12 0  0.96 0.12 0  0.98 0.12 0  1 0.12 0  0 0.14 0  0.02 0.14 0  0.04 0.14 0  0.06 0.14 0  0.08 0.14 0  0.1 0.14 0  0.12 0.14 0  0.14 0.14 0  0.16 0.14 0  0.18 0.14 0  0.2 0.14 0  0.22 0.14 0  0.24 0.14 0  0.26 0.14 0  0.28 0.14 0  0.3 0.14 0  0.32 0.14 0  0.34 0.14 0  0.36 0.14 0  0.38 0.14 0  0.4 0.14 0  0.42 0.14 0  0.44 0.14 0  0.46 0.14 0  0.48 0.14 0  0.5 0.14 0  0.52 0.14 0  0.54 0.14 0  0.5600000000000001 0.14 0  0.58 0.14 0  0.6 0.14 0  0.62 0.14 0  0.64 0.14 0  0.66 0.14 0  0.68 0.14 0  0.7 0.14 0  0.72 0.14 0  0.74 0.14 0  0.76 0.14 0  0.78 0.14 0  0.8 0.14 0  0.82 0.14 0  0.84 0.14 0  0.86 0.14 0  0.88 0.14 0  0.9 0.14 0  0.92 0.14 0  0.9399999999999999 0.14 0  0.96 0.14 0  0.98 0.14 0  1 0.14 0  0 0.16 0  0.02 0.16 0  0.04 0.16 0  0.06 0.16 0  0.08 0.16 0  0.1 0.16 0  0.12 0.16 0  0.14 0.16 0  0.16 0.16 0  0.18 0.16 0  0.2 0.16 0  0.22 0.16 0  0.24 0.16 0  0.26 0.16 0  0.28 0.16 0  0.3 0.16 0  0.32 0.16 0  0.34 0.16 0  0.36 0.16 0  0.38 0.16 0  0.4 0.16 0  0.42 0.16 0  0.44 0.16 0  0.46 0.16 0  0.48 0.16 0  0.5 0.16 0  0.52 0.16 0  0.54 0.16 0  0.5600000000000001 0.16 0  0.58 0.16 0  0.6 0.16 0  0.62 0.16 0  0.64 0.16 0  0.66 0.16 0  0.68 0.16 0  0.7 0.16 0  0.72 0.16 0  0.74 0.16 0  0.76 0.16 0  0.78 0.16 0  0.8 0.16 0  0.82 0.16 0  0.84 0.16 0  0.86 0.16 0  0.88 0.16 0  0.9 0.16 0  0.92 0.16 0  0.9399999999999999 0.16 0  0.96 0.16 0  0.98 0.16 0  1 0.16 0  0 0.18 0  0.02 0.18 0  0.04 0.18 0  0.06 0.18 0  0.08 0.18 0  0.1 0.18 0  0.12 0.18 0  0.14 0.18 0  0.16 0.18 0  0.18 0.18 0  0.2 0.18 0  0.22 0.18 0  0.24 0.18 0  0.26 0.18 0  0.28 0.18 0  0.3 0.18 0  0.32 0.18 0  0.34 0.18 0  0.36 0.18 0  0.38 0.18 0  0.4 0.18 0  0.42 0.18 0  0.44 0.18 0  0.46 0.18 0  0.48 0.18 0  0.5 0.18 0  0.52 0.18 0  0.54 0.18 0  0.5600000000000001 0.18 0  0.58 0.18 0  0.6 0.18 0  0.62 0.18 0  0.64 0.18 0  0.66 0.18 0  0.68 0.18 0  0.7 0.18 0  0.72 0.18 0  0.74 0.18 0  0.76 0.18 0  0.78 0.18 0  0.8 0.18 0  0.82 0.18 0  0.84 0.18 0  0.86 0.18 0  0.88 0.18 0  0.9 0.18 0  0.92 0.18 0  0.9399999999999999 0.18 0  0.96 0.18 0  0.98 0.18 0  1 0.18 0  0 0.2 0  0.02 0.2 0  0.04 0.2 0  0.06 0.2 0  0.08 0.2 0  0.1 0.2 0  0.12 0.2 0  0.14 0.2 0  0.16 0.2 0  0.18 0.2 0  0.2 0.2 0  0.22 0.2 0  0.24 0.2 0  0.26 0.2 0  0.28 0.2 0  0.3 0.2 0  0.32 0.2 0  0.34 0.2 0  0.36 0.2 0  0.38 0.2 0  0.4 0.2 0  0.42 0.2 0  0.44 0.2 0  0.46 0.2 0  0.48 0.2 0  0.5 0.2 0  0.52 0.2 0  0.54 0.2 0  0.5600000000000001 0.2 0  0.58 0.2 0  0.6 0.2 0  0.62 0.2 0  0.64 0.2 0  0.66 0.2 0  0.68 0.2 0  0.7 0.2 0  0.72 0.2 0  0.74 0.2 0  0.76 0.2 0  0.78 0.2 0  0.8 0.2 0  0.82 0.2 0  0.84 0.2 0  0.86 0.2 0  0.88 0.2 0  0.9 0.2 0  0.92 0.2 0  0.9399999999999999 0.2 0  0.96 0.2 0  0.98 0.2 0  1 0.2 0  0 0.22 0  0.02 0.22 0  0.04 0.22 0  0.06 0.22 0  0.08 0.22 0  0.1 0.22 0  0.12 0.22 0  0.14 0.22 0  0.16 0.22 0  0.18 0.22 0  0.2 0.22 0  0.22 0.22 0  0.24 0.22 0  0.26 0.22 0  0.28 0.22 0  0.3 0.22 0  0.32 0.22 0  0.34 0.22 0  0.36 0.22 0  0.38 0.22 0  0.4 0.22 0  0.42 0.22 0  0.44 0.22 0  0.46 0.22 0  0.48 0.22 0  0.5 0.22 0  0.52 0.22 0  0.54 0.22 0  0.5600000000000001 0.22 0  0.58 0.22 0  0.6 0.22 0  0.62 0.22 0  0.64 0.22 0  0.66 0.22 0  0.68 0.22 0  0.7 0.22 0  0.72 0.22 0  0.74 0.22 0  0.76 0.22 0  0.78 0.22 0  0.8 0.22 0  0.82 0.22 0  0.84 0.22 0  0.86 0.22 0  0.88 0.22 0  0.9 0.22 0  0.92 0.22 0  0.9399999999999999 0.22 0  0.96 0.22 0  0.98 0.22 0  1 0.22 0  0 0.24 0  0.02 0.24 0  0.04 0.24 0  0.06 0.24 0  0.08 0.24 0  0.1 0.24 0  0.12 0.24 0  0.14 0.24 0  0.16 0.24 0  0.18 0.24 0  0.2 0.24 0  0.22 0.24 0  0.24 0.24 0  0.26 0.24 0  0.28 0.24 0  0.3 0.24 0  0.32 0.24 0  0.34 0.24 0  0.36 0.24 0  0.38 0.24 0  0.4 0.24 0  0.42 0.24 0  0.44 0.24 0  0.46 0.24 0  0.48 0.24 0  0.5 0.24 0  0.52 0.24 0  0.54 0.24 0  0.5600000000000001 0.24 0  0.58 0.24 0  0.6 0.24 0  0.62 0.24 0  0.64 0.24 0  0.66 0.24 0  0.68 0.24 0  0.7 0.24 0  0.72 0.24 0  0.74 0.24 0  0.76 0.24 0  0.78 0.24 0  0.8 0.24 0  0.82 0.24 0  0.84 0.24 0  0.86 0.24 0  0.88 0.24 0  0.9 0.24 0  0.92 0.24 0  0.9399999999999999 0.24 0  0.96 0.24 0  0.98 0.24 0  1 0.24 0  0 0.26 0  0.02 0.26 0  0.04 0.26 0  0.06 0.26 0  0.08 0.26 0  0.1 0.26 0  0.12 0.26 0  0.14 0.26 0  0.16 0.26 0  0.18 0.26 0  0.2 0.26 0  0.22 0.26 0  0.24 0.26 0  0.26 0.26 0  0.28 0.26 0  0.3 0.26 0  0.32 0.26 0  0.34 0.26 0  0.36 0.26 0  0.38 0.26 0  0.4 0.26 0  0.42 0.26 0  0.44 0.26 0  0.46 0.26 0  0.48 0.26 0  0.5 0.26 0  0.52 0.26 0  0.54 0.26 0  0.5600000000000001 0.26 0  0.58 0.26 0  0.6 0.26 0  0.62 0.26 0  0.64 0.26 0  0.66 0.26 0  0.68 0.26 0  0.7 0.26 0  0.72 0.26 0  0.74 0.26 0  0.76 0.26 0  0.78 0.26 0  0.8 0.26 0  0.82 0.26 0  0.84 0.26 0  0.86 0.26 0  0.88 0.26 0  0.9 0.26 0  0.92 0.26 0  0.9399999999999999 0.26 0  0.96 0.26 0  0.98 0.26 0  1 0.26 0  0 0.28 0  0.02 0.28 0  0.04 0.28 0  0.06 0.28 0  0.08 0.28 0  0.1 0.28 0  0.12 0.28 0  0.14 0.28 0  0.16 0.28 0  0.18 0.28 0  0.2 0.28 0  0.22 0.28 0  0.24 0.28 0  0.26 0.28 0  0.28 0.28 0  0.3 0.28 0  0.32 0.28 0  0.34 0.28 0  0.36 0.28 0  0.38 0.28 0  0.4 0.28 0  0.42 0.28 0  0.44 0.28 0  0.46 0.28 0  0.48 0.28 0  0.5 0.28 0  0.52 0.28 0  0.54 0.28 0  0.5600000000000001 0.28 0  0.58 0.28 0  0.6 0.28 0  0.62 0.28 0  0.64 0.28 0  0.66 0.28 0  0.68 0.28 0  0.7 0.28 0  0.72 0.28 0  0.74 0.28 0  0.76 0.28 0  0.78 0.28 0  0.8 0.28 0  0.82 0.28 0  0.84 0.28 0  0.86 0.28
[...]
<PointData  Scalars="q_f"> 
<DataArray  type="Float64"  Name="q_f"  format="ascii">9.9999887424290934e-01  9.9999860548000452e-01  9.9999746384185662e-01  9.9999514005559975e-01  9.9999089148833054e-01  9.9998351849518530e-01  9.9997127031189514e-01  9.9995177551986847e-01  9.9992206011246498e-01  9.9987871809265816e-01  9.9981828648427429e-01  9.9973783794633431e-01  9.9963573797731442e-01  9.9951243121199762e-01  9.9937104840152824e-01  9.9921759715242486e-01  9.9906054650588838e-01  9.9890974860301363e-01  9.9877483702191838e-01  9.9866344330015278e-01  9.9857970381009142e-01  9.9852352187941562e-01  9.9849087982142304e-01  9.9847519817692110e-01  9.9846940675161377e-01  9.9846814111383919e-01  9.9846940675180074e-01  9.9847519817672503e-01  9.9849087982125673e-01  9.9852352187935633e-01  9.9857970381004846e-01  9.9866344330027301e-01  9.9877483702203296e-01  9.9890974860298676e-01  9.9906054650593945e-01  9.9921759715250569e-01  9.9937104840161628e-01  9.9951243121209210e-01  9.9963573797723193e-01  9.9973783794630600e-01  9.9981828648449067e-01  9.9987871809284934e-01  9.9992206011254126e-01  9.9995177552009873e-01  9.9997127031186284e-01  9.9998351849503231e-01  9.9999089148868969e-01  9.9999514005561441e-01  9.9999746384204613e-01  9.9999860547979835e-01  9.9999887424290934e-01  9.9999849250950446e-01  9.9999889408717546e-01  9.9999812490159157e-01  9.9999655405130927e-01  9.9999381962057521e-01  9.9998929029638239e-01  9.9998209114463166e-01  9.9997110220669205e-01  9.9995499728230908e-01  9.9993234654814633e-01  9.9990179393338030e-01  9.9986230281921229e-01  9.9981344026837504e-01  9.9975564557602936e-01  9.9969041160012750e-01  9.9962030619105546e-01  9.9954878267196223e-01  9.9947977314404457e-01  9.9941711829509561e-01  9.9936394612553803e-01  9.9932214912626616e-01  9.9929210707266836e-01  9.9927275329186915e-01  9.9926199408321692e-01  9.9925738780705253e-01  9.9925690498320607e-01  9.9925955454841553e-01  9.9926569081295036e-01  9.9927690526018131e-01  9.9929553007805361e-01  9.9932389642035013e-01  9.9936356169861174e-01  9.9941472407236653e-01  9.9947597962420665e-01  9.9954447184096418e-01  9.9961637049557461e-01  9.9968753370165753e-01  9.9975417547638656e-01  9.9981338455626967e-01  9.9986340300523857e-01  9.9990364961682465e-01  9.9993453782943831e-01  9.9995717442391763e-01  9.9997303002395199e-01  9.9998365245715159e-01  9.9999046215189924e-01  9.9999463704395564e-01  9.9999707036957786e-01  9.9999836913644025e-01  9.9999885056904547e-01  9.9999849250950446e-01  9.9999665769529800e-01  9.9999773765514399e-01  9.9999630703613751e-01  9.9999330503670780e-01  9.9998817650492966e-01  9.9997986850475140e-01  9.9996697228827069e-01  9.9994778014952823e-01  9.9992040349396216e-01  9.9988298438511836e-01  9.9983399542640328e-01  9.9977259125797602e-01  9.9969894541089654e-01  9.9961448791623453e-01  9.9952196188969189e-01  9.9942524622859275e-01  9.9932894263047134e-01  9.9923778587335288e-01  9.9915598916584003e-01  9.9908666455923134e-01  9.9903145174561991e-01  9.9899044664141989e-01  9.9896245312447851e-01  9.9894550351717792e-01  9.9893752500197774e-01  9.9893698812833642e-01  9.9894337225357621e-01  9.9895732420053240e-01  9.9898046236501614e-01  9.9901487030616198e-01  9.9906240698328397e-01  9.9912401182523736e-01  9.9919918647880435e-01  9.9928578933476464e-01  9.9938019618144169e-01  9.9947778435316659e-01  9.9957361656418375e-01  9.9966315763893776e-01  9.9974286322200323e-01  9.9981052872399567e-01  9.9986536002168269e-01  9.9990779982025324e-01  9.9993919385045071e-01  9.9996139876208345e-01  9.9997642070575199e-01  9.9998614122138207e-01  9.9999214869476905e-01  9.9999565880499008e-01  9.9999747702629327e-01  9.9999792589729797e-01  9.9999665769529800e-01  9.9999217724867906e-01  9.9999493300275000e-01  9.9999183754961529e-01  9.9998522037949944e-01  9.9997391976144800e-01  9.9995564830432648e-01  9.9992735820177081e-01  9.9988538713970554e-01  9.9982573603769409e-01  9.9974454591354023e-01  9.9963875404476366e-01  9.9950683941706508e-01  9.9934950603956629e-01  9.9917012110244563e-01  9.9897474381888385e-01  9.9877165638359477e-01  9.9857042642479310e-01  9.9838065774727025e-01  9.9821068250267597e-01  9.9806648069773096e-01  9.9795106996672589e-01  9.9786450148498218e-01  9.9780445638807325e-01  9.9776729727892699e-01  9.9774932390584348e-01  9.9774793374575543e-01  9.9776240771897640e-01  9.9779412591986105e-01  9.9784615139682897e-01  9.9792227264989075e-01  9.9802573167098030e-01  9.9815794947458392e-01  9.9831757098035068e-01  9.9850007893596227e-01  9.9869808731441423e-01  9.9890225329478921e-01  9.9910259156740333e-01  9.9928988104997896e-01  9.9945684970170723e-01  9.9959890537747176e-01  9.9971431815270284e-01  9.9980390451090229e-01  9.9987037138156520e-01  9.9991752271445034e-01  9.9994951287822087e-01  9.9997026924280907e-01  9.9998312801342049e-01  9.9999065202016313e-01  9.9999452752413098e-01  9.9999535785172899e-01  9.9999217724867906e-01  9.9998216608595658e-01  9.9998894861565579e-01  9.9998246014505898e-01  9.9996827138651101e-01  9.9994400619045021e-01  9.9990478851190412e-01  9.9984411813353968e-01  9.9975421385705343e-01  9.9962662771554212e-01  9.9945327799205275e-01  9.9922784998055358e-01  9.9894736169172726e-01  9.9861356505990839e-01  9.9823379658396894e-01  9.9782094621231587e-01  9.9739238792403029e-01  9.9696797175058471e-01  9.9656743813609394e-01  9.9620779411225413e-01  9.9590122432762629e-01  9.9565398731726296e-01  9.9546651018832422e-01  9.9533461581810445e-01  9.9525156825019956e-01  9.9521045480345227e-01  9.9520636178477206e-01  9.9523784933869974e-01  9.9530738039020872e-01  9.9542058471475370e-01  9.9558450129492415e-01  9.9580518684854369e-01  9.9608524928768261e-01  9.9642191430754812e-01  9.9680613543624896e-01  9.9722302110123640e-01  9.9765352740072000e-01  9.9807704057761970e-01  9.9847424880153168e-01  9.9882965198599305e-01  9.9913319471069717e-01  9.9938077737678876e-01  9.9957370685119729e-01  9.9971739011175087e-01  9.9981968930627318e-01  9.9988933476992392e-01  9.9993467090560528e-01  9.9996284458726803e-01  9.9997937896190237e-01  9.9998790657940850e-01  9.9998963590344947e-01  9.9998216608595658e-01  9.9996079905842306e-01  9.9997675203458636e-01  9.9996372572621206e-01  9.9993448072477331e-01  9.9988440051623928e-01  9.9980351637200005e-01  9.9967853512257154e-01  9.9949361557890293e-01  9.9923167563741444e-01  9.9887654032229611e-01  9.9841580572399313e-01  9.9784397963007621e-01  9.9716521170391403e-01  9.9639483546078256e-01  9.9555909057879521e-01  9.9469278171963871e-01  9.9383516396069449e-01  9.9302485344319447e-01  9.9229486262523814e-01  9.9166884139454214e-01  9.9115928077895232e-01  9.9076793172543920e-01  9.9048817968188263e-01  9.9030873146073561e-01  9.9021776843447473e-01  9.9020668852395222e-01  9.9027266733243702e-01  9.9041949328077650e-01  9.9065645423269089e-01  9.9099544070289802e-01  9.9144682628207337e-01  9.9201501295144734e-01  9.9269470087867384e-01  9.9346887957168928e-01  9.9430919996520617e-01  9.9517881892018534e-01  9.9603715511985036e-01  9.9684547079086783e-01  9.9757198600220676e-01  9.9819541677223045e-01  9.9870632742351539e-01  9.9910631019183060e-01  9.9940553399101628e-01  9.9961948727663252e-01  9.9976573733544560e-01  9.9986130365115033e-01  9.9992090855061455e-01  9.9995601224896480e-01  9.9997415540351475e-01  9.9997764756036267e-01  9.9996079905842306e-01  9.9991702536565408e-01  9.9995287648176057e-01  9.9992785181687216e-01  9.9986995969311654e-01  9.9977070982461702e-01  9.9961059614549574e-01  9.9936361113438965e-01  9.9899894466206984e-01  9.9848366659425680e-01  9.9778701632232958e-01  9.9688600460384613e-01  9.9577140991225588e-01  9.9445279272380571e-01  9.9296103326008212e-01  9.9134726474957635e-01  9.8967790596886462e-01  9.8802656864628446e-01  9.8646455455541715e-01  9.8505209503413671e-01  9.8383223912471385e-01  9.8282847572356480e-01  9.8204613358561998e-01  9.8147674118737716e-01  9.8110407814730194e-01  9.8091059271548897e-01  9.8088302370568181e-01  9.8101629455441763e-01  9.8131499716804982e-01  9.8179209270478052e-01  9.8246486993531723e-01  9.8334872137815887e-01  9.8444986691949177e-01  9.8575864291627002e-01  9.8724517384291643e-01  9.8885894097462079e-01  9.9053289079356110e-01  9.9219148299340554e-01  9.9376089656120392e-01  9.9517896034589304e-01  9.9640251254619050e-01  9.9741074603444757e-01  9.9820430514790259e-01  9.9880100983907238e-01  9.9922974614618054e-01  9.9952415356564728e-01  9.9971735675093731e-01  9.9983834478630507e-01  9.9990987230859762e-01  9.9994691845599215e-01  9.9995361197809440e-01  9.9991702536565408e-01  9.9983092325359491e-01  9.9990796648276392e-01  9.9986200177411733e-01  9.9975195264160743e-01  9.9956310345744381e-01  9.9925894388170966e-01  9.9879082539115904e-01  9.9810155249740729e-01  9.9713069348187811e-01  9.9582280825861791e-01  9.9413792726259642e-01  9.9206243079935541e-01  9.8961767906236819e-01  9.8686365458500502e-01  9.8389574485334796e-01  9.8083451866207616e-01  9.7781042856548839e-01  9.7494701820007479e-01  9.7234669643279614e-01  9.7008218466981111e-01  9.6819475516772791e-01  9.6669828024827853e-01  9.6558681827457449e-01  9.6484332840349052e-01  9.6444778886040483e-01  9.6438381182372401e-01  9.6464330896224693e-01  9.6522880743950978e-01  9.6615289360722256e-01  9.6743427367629986e-01  9.6909031943984547e-01  9.7112682554319962e-01  9.7352692107395755e-01  9.7624217679388126e-01  9.7918922271385034e-01  9.8225413491376223e-01  9.8530461349152265e-01  9.8820740670314533e-01  9.9084665329168020e-01  9.9313857103522751e-01  9.9503923878909339e-01  9.9654445990635765e-01  9.9768293510128792e-01  9.9850544995101831e-01  9.9907316489324738e-01  9.9944750522494152e-01  9.9968297042358190e-01  9.9982275220551675e-01  9.9989529432465973e-01  9.9990741142102246e-01  9.9983092325359491e-01  9.9966836341164866e-01  9.9982680284118652e-01  9.9974616345818001e-01  9.9954528876474680e-01  9.9920030291971473e-01  9.9864587047061348e-01  9.9779503748406406e-01  9.9654655670862446e-01  9.9479502973138645e-01  9.9244606873808283e-01  9.8943503647021214e-01  9.8574576569057026e-01  9.8142435475338330e-01  9.7658325600140206e-01  9.7139280728626154e-01  9.6606082110188340e-01  9.6080475421185318e-01  9.5582372200521493e-01  9.5127776575859557e-01  9.4727895643436433e-01  9.4389430467491942e-01  9.4115632216917111e-01  9.3907547753400422e-01  9.3765015607700852e-01  9.3687271016268092e-01  9.3673273981729799e-01  9.3721959808414312e-01  9.3832529978643364e-01  9.4004734872246831e-01  9.4238942291644123e-01  9.4535720455346983e-01  9.4894760831092906e-01  9.5313240183917847e-01  9.5784076101834636e-01  9.6294769661693158e-01  9.6827472197459385e-01  9.7360533165371244e-01  9.7871246494667763e-01  9.8339069543490865e-01  9.8748437212732842e-01  9.9090472257825868e-01  9.9363289901730290e-01  9.9571029373669029e-01  9.9722057974008327e-01  9.9826905653774689e-01  9.9896409564228605e-01  9.9940343957650546e-01  9.9966542217525611e-01  9.9980164658019732e-01  9.9982227576216287e-01  9.9966836341164866e-01  9.9937389924654663e-01  9.9968589589505796e-01  9.9955093794036143e-01  9.9919886800172009e-01  9.9859381809835401e-01  9.9762407409558418e-01  9.9614122404387140e-01  9.9397456017862051e-01  9.9094976438826665e-01  9.8691575595040293e-01  9.8177672079211309e-01  9.7552257495300676e-01  9.6824913294249848e-01  9.6016001279648955e-01  9.5154640023578430e-01  9.4274752632473269e-01  9.3410186400167550e-01  9.2590338922219140e-01  9.1837600133233077e-01  9.1167193871308216e-01  9.0588978589787172e-01  9.0109977894482063e-01  8.9736294863183730e-01  8.9473646978235322e-01  8.9326637606783243e-01  8.9297532244190914e-01  8.9385449179354748e-01  8.9586554735136881e-01  8.9895290011060058e-01  9.0306068086642122e-01  9.0814480725457314e-01  9.1417072873384175e-01  9.2109310243251652e-01  9.2882306693828109e-01  9.3719703882952665e-01  9.4596287941685220e-01  9.5479318585197703e-01  9.6332446277653427e-01  9.7121071756679955e-01  9.7817522789532574e-01  9.8404615688166208e-01  9.8876842877843585e-01  9.9239237616506004e-01  9.9504597527862060e-01  9.9690027879547627e-01  9.9813686641854160e-01  9.9892280061857763e-01  9.9939374574009721e-01  9.9963909648132510e-01  9.9967192475964972e-01  9.9937389924654663e-01  9.9886237561063207e-01  9.9945095147768026e-01  9.9923581594088551e-01  9.9864327733587732e-01  9.9762441799298718e-01  9.9599685131042892e-01  9.9351888202904881e-01  9.8991677613903906e-01  9.8491797436033435e-01  9.7829679358664490e-01  9.6992672948156644e-01  9.5982716384784827e-01  9.4818950808951963e-01  9.3537011356848954e-01  9.2184550484083683e-01  9.0813817802860142e-01  8.9473398988053809e-01  8.8201868954737539e-01  8.7025604205452300e-01  8.5961301705124260e-01  8.5021584763338109e-01  8.4220621931031892e-01  8.3576836244621522e-01  8.3111457813249834e-01  8.2843840287958803e-01  8.2785920976565230e-01  8.2938402753930240e-01  8.3290381129626767e-01  8.3822719702225468e-01  8.4513909237379292e-01  8.5345886435275342e-01  8.6306968292142960e-01  8.7390146765328647e-01  8.8587210593984533e-01  8.9881382447377633e-01  9.1242073710077820e-01  9.2624433317451105e-01  9.3974194046818538e-01  9.5236119209457648e-01  9.6363144003008239e-01  9.7323413455615471e-01  9.8103514316969342e-01  9.8707645895237273e-01  9.9153682190244907e-01  9.9467698951730221e-01  9.9678519446234493e-01  9.9813323098032769e-01  9.9894530889654454e-01  9.9936920697786680e-01  9.9941755821977041e-01  9.9886237561063207e-01  9.9801069669965781e-01  9.9907481161240386e-01  9.9874879571912356e-01  9.9779107654047228e-01  9.9614354910362413e-01  9.9352212430264553e-01  9.8955158572821933e-01  9.8381528443474309e-01  9.7591210728901412e-01  9.6553130569306056e-01  9.5253407976548921e-01  9.3702065641167709e-01  9.1935809294429416e-01  9.0014954794347546e-01  8.8014154343666307e-01  8.6008897970157694e-01  8.4062005832951858e-01  8.2215249322876227e-01  8.0489819717160960e-01  7.8895673212027972e-01  7.7445433054859614e-01  7.6165991834059454e-01  7.5101921833637575e-01  7.4308823259913392e-01  7.3839457697814492e-01  7.3728443086832673e-01  7.3981501585227849e-01  7.4573370497330027e-01  7.5455447083065019e-01  7.6570676524088643e-01  7.7869991850051890e-01  7.9323325899105346e-01  8.0920171892542070e-01  8.2659480582322620e-01  8.4533885206553117e-01  8.6515849212182550e-01  8.8551991405739361e-01  9.0567693476741395e-01  9.2479645002073918e-01  9.4211319379102543e-01  9.5706179982956530e-01  9.6935117481458233e-01  9.7897093524041923e-01  9.8614161988838467e-01  9.9123309227337342e-01  9.9467732045735180e-01  9.9689451973161580e-01  9.9823800534819485e-01  9.9894071742270618e-01  9.9900548554630764e-01  9.9801069669965781e-01  9.9665243355169275e-01  9.9849679034939631e-01  9.9802834484055047e-01  9.9654144462801586e-01  9.9398256354369041e-01  9.8992991913236106e-01  9.8382885264887721e-01  9.7507894399782480e-01  9.6312832583553643e-01  9.4759162876379199e-01  9.2837153036277653e-01  9.0574812916586245e-01  8.8039649902110229e-01  8.5330437534168424e-01  8.2559096205853866e-01  7.9826931674893109e-01  7.7203322717653999e-01  7.4716129278422039e-01  7.2359705293979937e-01  7.0118869915311566e-01  6.7998991424038258e-01  6.6048275195256900e-01  6.4361272603621922e-01  6.3061133051852902e-01  6.2267356821795028e-01  6.2061143830276178e-01  6.2460584127564889e-01  6.3414384574463190e-01  6.4817069272934469e-01  6.6541299638171447e-01  6.8475760445174227e-01  7.0553496184327269e-01  7.2758886790673827e-01  7.5111116021617230e-01  7.7633002910371696e-01  8.0320145282888189e-01  8.3123480696622853e-01  8.5950751271522174e-01  8.8683900018906259e-01  9.1204124531842357e-01  9.3415410139921717e-01  9.5259864919320114e-01  9.6722202656709977e-01  9.7824515290260405e-01  9.8614901940605859e-01  9.9154174534891393e-01  9.9503942476187013e-01  9.9717240268423879e-01  9.9829047374263746e-01  9.9836661514876490e-01  9.9665243355169275e-01  9.9457917205816981e-01  9.9764455244290162e-01  9.9700857679241117e-01  9.9479046372843816e-01  9.9097170322361106e-01  9.8495604459666020e-01  9.7596379423466850e-01  9.6317866744561054e-01  9.4589855149289692e-01  9.2371466134476510e-01  8.9668450032826730e-01  8.6544041541429406e-01  8.3117220048547602e-01  7.9544456686742260e-01  7.5986179693262890e-01  7.2566405459417216e-01  6.9340424008463475e-01  6.6286625134024169e-01  6.3331146409854489e-01  6.0399565165812330e-01  5.7475532965689791e-01  5.4640588103537446e-01  5.2076330985719133e-01  5.0026210257692494e-01  4.8730536447053802e-01  4.8357288689384531e-01  4.8951384946431786e-01  5.0419321143824625e-01  5.2556252725387631e-01  5.5108781977595112e-01  5.7851924008034361e-01  6.0650498596241065e-01  6.3480389620595012e-01  6.6403126745478813e-01  6.9508701864290867e-01  7.2854184006834688e-01  7.6423364031725316e-01  8.0119268600816429e-01  8.3786242596324167e-01  8.7248578562523038e-01  9.0350348773756639e-01  9.2984489367936396e-01  9.5105372883790007e-01  9.6725351928072911e-01  9.7900136308592722e-01  9.8709506436079297e-01  9.9238869286580511e-01  9.9563963040401238e-01  9.9734773705550084e-01  9.9741930963873282e-01  9.9457917205816981e-01  9.9155313956971836e-01  9.9643966801797068e-01  9.9562798976918865e-01  9.9244717099573732e-01  9.8696855618519697e-01  9.7839056204926667e-01  9.6567255323007573e-01  9.4777282971157439e-01  9.2388140457290202e-01  8.9368257668501483e-01  8.5758995783194825e-01  8.1686221672537040e-01  7.7350670032803326e-01  7.2991868144036076e-01  6.8829240508737455e-01  6.4996215262068679e-01  6.1493541860881495e-01  5.8188370340535889e-01  5.4870495528340990e-01  5.1351223680526725e-01  4.7567655124156827e-01  4.3648973334340707e-01  3.9915183578088564e-01  3.6805741043924417e-01  3.4761971838901279e-01  3.4101390031780526e-01  3.4922631705708657e-01  3.7071821593523185e-01  4.0185865551873495e-01  4.3803678437146032e-01  4.7508312649713419e-01  5.1046097023059067e-01  5.4376125473120041e-01  5.7634418453434111e-01  6.1036085050958744e-01  6.4763356370321190e-01  6.8884860321591879e-01  7.3328917677513428e-01  7.7908072038949305e-01  8.2375527373202462e-01  8.6489236452536045e-01  9.0063413253138991e-01  9.2996170521717492e-01  9.5271819405198099e-01  9.6943925687004229e-01  9.8108719793516563e-01  9.8877684616662387e-01  9.9353570557603932e-01  9.9604266087463522e-01  9.9607702408244525e-01  9.9155313956971836e-01  9.8733498036190015e-01  9.9480757358043492e-01  9.9384121142551662e-01  9.8945374178452505e-01  9.8189244924173003e-01  9.7013387710801546e-01  9.5286167682287537e-01  9.2883728541112209e-01  8.9724714553189477e-01  8.5807443462754518e-01  8.1240380043571958e-01  7.6251883931109821e-01  7.1165637573311769e-01  6.6335229813483598e-01  6.2046091943952075e-01  5.8412856792931200e-01  5.5315953123783468e-01  5.2418447588388750e-01  4.9275259710925973e-01  4.5504114026942843e-01  4.0956139936959540e-01  3.5819975252554620e-01  3.0616093022297119e-01  2.6078194094074375e-01  2.2958531167736343e-01  2.1816348461576365e-01  2.2851443924403303e-01  2.5836038137136852e-01  3.0176168689496086e-01  3.5093120353011309e-01  3.9866126686501568e-01  4.4045805664534626e-01  4.7555419333668081e-01  5.0646130475012041e-01  5.3739923219201413e-01  5.7239394889319695e-01  6.1381436142076706e-01  6.6174828416605180e-01  7.1421188247326550e-01  7.6792622710682057e-01  8.1929925293040762e-01  8.6528660523529188e-01  9.0392478709803359e-01  9.3447946938529503e-01  9.5727758758711845e-01  9.7335939019437689e-01  9.8408677312668280e-01  9.9078157541542333e-01  9.9431881525745491e-01  9.9426146824483641e-01  9.8733498036190015e-01  9.8172796221475789e-01  9.9269180518786138e-01  9.9163210672010971e-01  9.8580626001822347e-01  9.7575796206044252e-01  9.6024788124317828e-01  9.3770102927737675e-01  9.0676145077715997e-01  8.6679252634776327e-01  8.1838570220229578e-01  7.6373678759972585e-01  7.0668175958138491e-01  6.5219989626135089e-01  6.0531177884064213e-0