<?xml version="1.0"?>
<VTKFile type="UnstructuredGrid"  version="0.1"  >
<UnstructuredGrid>
<Piece  NumberOfPoints="2601" NumberOfCells="5000">
<Points>
<DataArray  type="Float64"  NumberOfComponents="3"  format="ascii">0 0 0  0.02 0 0  0.04 0 0  0.06 0 0  0.08 0 0  0.1 0 0  0.12 0 0  0.14 0 0  0.16 0 0  0.18 0 0  0.2 0 0  0.22 0 0  0.24 0 0  0.26 0 0  0.28 0 0  0.3 0 0  0.32 0 0  0.34 0 0  0.36 0 0  0.38 0 0  0.4 0 0  0.42 0 0  0.44 0 0  0.46 0 0  0.48 0 0  0.5 0 0  0.52 0 0  0.54 0 0  0.5600000000000001 0 0  0.58 0 0  0.6 0 0  0.62 0 0  0.64 0 0  0.66 0 0  0.68 0 0  0.7 0 0  0.72 0 0  0.74 0 0  0.76 0 0  0.78 0 0  0.8 0 0  0.82 0 0  0.84 0 0  0.86 0 0  0.88 0 0  0.9 0 0  0.92 0 0  0.9399999999999999 0 0  0.96 0 0  0.98 0 0  1 0 0  0 0.02 0  0.02 0.02 0  0.04 0.02 0  0.06 0.02 0  0.08 0.02 0  0.1 0.02 0  0.12 0.02 0  0.14 0.02 0  0.16 0.02 0  0.18 0.02 0  0.2 0.02 0  0.22 0.02 0  0.24 0.02 0  0.26 0.02 0  0.28 0.02 0  0.3 0.02 0  0.32 0.02 0  0.34 0.02 0  0.36 0.02 0  0.38 0.02 0  0.4 0.02 0  0.42 0.02 0  0.44 0.02 0  0.46 0.02 0  0.48 0.02 0  0.5 0.02 0  0.52 0.02 0  0.54 0.02 0  0.5600000000000001 0.02 0  0.58 0.02 0  0.6 0.02 0  0.62 0.02 0  0.64 0.02 0  0.66 0.02 0  0.68 0.02 0  0.7 0.02 0  0.72 0.02 0  0.74 0.02 0  0.76 0.02 0  0.78 0.02 0  0.8 0.02 0  0.82 0.02 0  0.84 0.02 0  0.86 0.02 0  0.88 0.02 0  0.9 0.02 0  0.92 0.02 0  0.9399999999999999 0.02 0  0.96 0.02 0  0.98 0.02 0  1 0.02 0  0 0.04 0  0.02 0.04 0  0.04 0.04 0  0.06 0.04 0  0.08 0.04 0  0.1 0.04 0  0.12 0.04 0  0.14 0.04 0  0.16 0.04 0  0.18 0.04 0  0.2 0.04 0  0.22 0.04 0  0.24 0.04 0  0.26 0.04 0  0.28 0.04 0  0.3 0.04 0  0.32 0.04 0  0.34 0.04 0  0.36 0.04 0  0.38 0.04 0  0.4 0.04 0  0.42 0.04 0  0.44 0.04 0  0.46 0.04 0  0.48 0.04 0  0.5 0.04 0  0.52 0.04 0  0.54 0.04 0  0.5600000000000001 0.04 0  0.58 0.04 0  0.6 0.04 0  0.62 0.04 0  0.64 0.04 0  0.66 0.04 0  0.68 0.04 0  0.7 0.04 0  0.72 0.04 0  0.74 0.04 0  0.76 0.04 0  0.78 0.04 0  0.8 0.04 0  0.82 0.04 0  0.84 0.04 0  0.86 0.04 0  0.88 0.04 0  0.9 0.04 0  0.92 0.04 0  0.9399999999999999 0.04 0  0.96 0.04 0  0.98 0.04 0  1 0.04 0  0 0.06 0  0.02 0.06 0  0.04 0.06 0  0.06 0.06 0  0.08 0.06 0  0.1 0.06 0  0.12 0.06 0  0.14 0.06 0  0.16 0.06 0  0.18 0.06 0  0.2 0.06 0  0.22 0.06 0  0.24 0.06 0  0.26 0.06 0  0.28 0.06 0  0.3 0.06 0  0.32 0.06 0  0.34 0.06 0  0.36 0.06 0  0.38 0.06 0  0.4 0.06 0  0.42 0.06 0  0.44 0.06 0  0.46 0.06 0  0.48 0.06 0  0.5 0.06 0  0.52 0.06 0  0.54 0.06 0  0.5600000000000001 0.06 0  0.58 0.06 0  0.6 0.06 0  0.62 0.06 0  0.64 0.06 0  0.66 0.06 0  0.68 0.06 0  0.7 0.06 0  0.72 0.06 0  0.74 0.06 0  0.76 0.06 0  0.78 0.06 0  0.8 0.06 0  0.82 0.06 0  0.84 0.06 0  0.86 0.06 0  0.88 0.06 0  0.9 0.06 0  0.92 0.06 0  0.9399999999999999 0.06 0  0.96 0.06 0  0.98 0.06 0  1 0.06 0  0 0.08 0  0.02 0.08 0  0.04 0.08 0  0.06 0.08 0  0.08 0.08 0  0.1 0.08 0  0.12 0.08 0  0.14 0.08 0  0.16 0.08 0  0.18 0.08 0  0.2 0.08 0  0.22 0.08 0  0.24 0.08 0  0.26 0.08 0  0.28 0.08 0  0.3 0.08 0  0.32 0.08 0  0.34 0.08 0  0.36 0.08 0  0.38 0.08 0  0.4 0.08 0  0.42 0.08 0  0.44 0.08 0  0.46 0.08 0  0.48 0.08 0  0.5 0.08 0  0.52 0.08 0  0.54 0.08 0  0.5600000000000001 0.08 0  0.58 0.08 0  0.6 0.08 0  0.62 0.08 0  0.64 0.08 0  0.66 0.08 0  0.68 0.08 0  0.7 0.08 0  0.72 0.08 0  0.74 0.08 0  0.76 0.08 0  0.78 0.08 0  0.8 0.08 0  0.82 0.08 0  0.84 0.08 0  0.86 0.08 0  0.88 0.08 0  0.9 0.08 0  0.92 0.08 0  0.9399999999999999 0.08 0  0.96 0.08 0  0.98 0.08 0  1 0.08 0  0 0.1 0  0.02 0.1 0  0.04 0.1 0  0.06 0.1 0  0.08 0.1 0  0.1 0.1 0  0.12 0.1 0  0.14 0.1 0  0.16 0.1 0  0.18 0.1 0  0.2 0.1 0  0.22 0.1 0  0.24 0.1 0  0.26 0.1 0  0.28 0.1 0  0.3 0.1 0  0.32 0.1 0  0.34 0.1 0  0.36 0.1 0  0.38 0.1 0  0.4 0.1 0  0.42 0.1 0  0.44 0.1 0  0.46 0.1 0  0.48 0.1 0  0.5 0.1 0  0.52 0.1 0  0.54 0.1 0  0.5600000000000001 0.1 0  0.58 0.1 0  0.6 0.1 0  0.62 0.1 0  0.64 0.1 0  0.66 0.1 0  0.68 0.1 0  0.7 0.1 0  0.72 0.1 0  0.74 0.1 0  0.76 0.1 0  0.78 0.1 0  0.8 0.1 0  0.82 0.1 0  0.84 0.1 0  0.86 0.1 0  0.88 0.1 0  0.9 0.1 0  0.92 0.1 0  0.9399999999999999 0.1 0  0.96 0.1 0  0.98 0.1 0  1 0.1 0  0 0.12 0  0.02 0.12 0  0.04 0.12 0  0.06 0.12 0  0.08 0.12 0  0.1 0.12 0  0.12 0.12 0  0.14 0.12 0  0.16 0.12 0  0.18 0.12 0  0.2 0.12 0  0.22 0.12 0  0.24 0.12 0  0.26 0.12 0  0.28 0.12 0  0.3 0.12 0  0.32 0.12 0  0.34 0.12 0  0.36 0.12 0  0.38 0.12 0  0.4 0.12 0  0.42 0.12 0  0.44 0.12 0  0.46 0.12 0  0.48 0.12 0  0.5 0.12 0  0.52 0.12 0  0.54 0.12 0  0.5600000000000001 0.12 0  0.58 0.12 0  0.6 0.12 0  0.62 0.12 0  0.64 0.12 0  0.66 0.12 0  0.68 0.12 0  0.7 0.12 0  0.72 0.12 0  0.74 0.12 0  0.76 0.12 0  0.78 0.12 0  0.8 0.12 0  0.82 0.12 0  0.84 0.12 0  0.86 0.12 0  0.88 0.12 0  0.9 0.12 0  0.92 0.12 0  0.9399999999999999 0.12 0  0.96 0.12 0  0.98 0.12 0  1 0.12 0  0 0.14 0  0.02 0.14 0  0.04 0.14 0  0.06 0.14 0  0.08 0.14 0  0.1 0.14 0  0.12 0.14 0  0.14 0.14 0  0.16 0.14 0  0.18 0.14 0  0.2 0.14 0  0.22 0.14 0  0.24 0.14 0  0.26 0.14 0  0.28 0.14 0  0.3 0.14 0  0.32 0.14 0  0.34 0.14 0  0.36 0.14 0  0.38 0.14 0  0.4 0.14 0  0.42 0.14 0  0.44 0.14 0  0.46 0.14 0  0.48 0.14 0  0.5 0.14 0  0.52 0.14 0  0.54 0.14 0  0.5600000000000001 0.14 0  0.58 0.14 0  0.6 0.14 0  0.62 0.14 0  0.64 0.14 0  0.66 0.14 0  0.68 0.14 0  0.7 0.14 0  0.72 0.14 0  0.74 0.14 0  0.76 0.14 0  0.78 0.14 0  0.8 0.14 0  0.82 0.14 0  0.84 0.14 0  0.86 0.14 0  0.88 0.14 0  0.9 0.14 0  0.92 0.14 0  0.9399999999999999 0.14 0  0.96 0.14 0  0.98 0.14 0  1 0.14 0  0 0.16 0  0.02 0.16 0  0.04 0.16 0  0.06 0.16 0  0.08 0.16 0  0.1 0.16 0  0.12 0.16 0  0.14 0.16 0  0.16 0.16 0  0.18 0.16 0  0.2 0.16 0  0.22 0.16 0  0.24 0.16 0  0.26 0.16 0  0.28 0.16 0  0.3 0.16 0  0.32 0.16 0  0.34 0.16 0  0.36 0.16 0  0.38 0.16 0  0.4 0.16 0  0.42 0.16 0  0.44 0.16 0  0.46 0.16 0  0.48 0.16 0  0.5 0.16 0  0.52 0.16 0  0.54 0.16 0  0.5600000000000001 0.16 0  0.58 0.16 0  0.6 0.16 0  0.62 0.16 0  0.64 0.16 0  0.66 0.16 0  0.68 0.16 0  0.7 0.16 0  0.72 0.16 0  0.74 0.16 0  0.76 0.16 0  0.78 0.16 0  0.8 0.16 0  0.82 0.16 0  0.84 0.16 0  0.86 0.16 0  0.88 0.16 0  0.9 0.16 0  0.92 0.16 0  0.9399999999999999 0.16 0  0.96 0.16 0  0.98 0.16 0  1 0.16 0  0 0.18 0  0.02 0.18 0  0.04 0.18 0  0.06 0.18 0  0.08 0.18 0  0.1 0.18 0  0.12 0.18 0  0.14 0.18 0  0.16 0.18 0  0.18 0.18 0  0.2 0.18 0  0.22 0.18 0  0.24 0.18 0  0.26 0.18 0  0.28 0.18 0  0.3 0.18 0  0.32 0.18 0  0.34 0.18 0  0.36 0.18 0  0.38 0.18 0  0.4 0.18 0  0.42 0.18 0  0.44 0.18 0  0.46 0.18 0  0.48 0.18 0  0.5 0.18 0  0.52 0.18 0  0.54 0.18 0  0.5600000000000001 0.18 0  0.58 0.18 0  0.6 0.18 0  0.62 0.18 0  0.64 0.18 0  0.66 0.18 0  0.68 0.18 0  0.7 0.18 0  0.72 0.18 0  0.74 0.18 0  0.76 0.18 0  0.78 0.18 0  0.8 0.18 0  0.82 0.18 0  0.84 0.18 0  0.86 0.18 0  0.88 0.18 0  0.9 0.18 0  0.92 0.18 0  0.9399999999999999 0.18 0  0.96 0.18 0  0.98 0.18 0  1 0.18 0  0 0.2 0  0.02 0.2 0  0.04 0.2 0  0.06 0.2 0  0.08 0.2 0  0.1 0.2 0  0.12 0.2 0  0.14 0.2 0  0.16 0.2 0  0.18 0.2 0  0.2 0.2 0  0.22 0.2 0  0.24 0.2 0  0.26 0.2 0  0.28 0.2 0  0.3 0.2 0  0.32 0.2 0  0.34 0.2 0  0.36 0.2 0  0.38 0.2 0  0.4 0.2 0  0.42 0.2 0  0.44 0.2 0  0.46 0.2 0  0.48 0.2 0  0.5 0.2 0  0.52 0.2 0  0.54 0.2 0  0.5600000000000001 0.2 0  0.58 0.2 0  0.6 0.2 0  0.62 0.2 0  0.64 0.2 0  0.66 0.2 0  0.68 0.2 0  0.7 0.2 0  0.72 0.2 0  0.74 0.2 0  0.76 0.2 0  0.78 0.2 0  0.8 0.2 0  0.82 0.2 0  0.84 0.2 0  0.86 0.2 0  0.88 0.2 0  0.9 0.2 0  0.92 0.2 0  0.9399999999999999 0.2 0  0.96 0.2 0  0.98 0.2 0  1 0.2 0  0 0.22 0  0.02 0.22 0  0.04 0.22 0  0.06 0.22 0  0.08 0.22 0  0.1 0.22 0  0.12 0.22 0  0.14 0.22 0  0.16 0.22 0  0.18 0.22 0  0.2 0.22 0  0.22 0.22 0  0.24 0.22 0  0.26 0.22 0  0.28 0.22 0  0.3 0.22 0  0.32 0.22 0  0.34 0.22 0  0.36 0.22 0  0.38 0.22 0  0.4 0.22 0  0.42 0.22 0  0.44 0.22 0  0.46 0.22 0  0.48 0.22 0  0.5 0.22 0  0.52 0.22 0  0.54 0.22 0  0.5600000000000001 0.22 0  0.58 0.22 0  0.6 0.22 0  0.62 0.22 0  0.64 0.22 0  0.66 0.22 0  0.68 0.22 0  0.7 0.22 0  0.72 0.22 0  0.74 0.22 0  0.76 0.22 0  0.78 0.22 0  0.8 0.22 0  0.82 0.22 0  0.84 0.22 0  0.86 0.22 0  0.88 0.22 0  0.9 0.22 0  0.92 0.22 0  0.9399999999999999 0.22 0  0.96 0.22 0  0.98 0.22 0  1 0.22 0  0 0.24 0  0.02 0.24 0  0.04 0.24 0  0.06 0.24 0  0.08 0.24 0  0.1 0.24 0  0.12 0.24 0  0.14 0.24 0  0.16 0.24 0  0.18 0.24 0  0.2 0.24 0  0.22 0.24 0  0.24 0.24 0  0.26 0.24 0  0.28 0.24 0  0.3 0.24 0  0.32 0.24 0  0.34 0.24 0  0.36 0.24 0  0.38 0.24 0  0.4 0.24 0  0.42 0.24 0  0.44 0.24 0  0.46 0.24 0  0.48 0.24 0  0.5 0.24 0  0.52 0.24 0  0.54 0.24 0  0.5600000000000001 0.24 0  0.58 0.24 0  0.6 0.24 0  0.62 0.24 0  0.64 0.24 0  0.66 0.24 0  0.68 0.24 0  0.7 0.24 0  0.72 0.24 0  0.74 0.24 0  0.76 0.24 0  0.78 0.24 0  0.8 0.24 0  0.82 0.24 0  0.84 0.24 0  0.86 0.24 0  0.88 0.24 0  0.9 0.24 0  0.92 0.24 0  0.9399999999999999 0.24 0  0.96 0.24 0  0.98 0.24 0  1 0.24 0  0 0.26 0  0.02 0.26 0  0.04 0.26 0  0.06 0.26 0  0.08 0.26 0  0.1 0.26 0  0.12 0.26 0  0.14 0.26 0  0.16 0.26 0  0.18 0.26 0  0.2 0.26 0  0.22 0.26 0  0.24 0.26 0  0.26 0.26 0  0.28 0.26 0  0.3 0.26 0  0.32 0.26 0  0.34 0.26 0  0.36 0.26 0  0.38 0.26 0  0.4 0.26 0  0.42 0.26 0  0.44 0.26 0  0.46 0.26 0  0.48 0.26 0  0.5 0.26 0  0.52 0.26 0  0.54 0.26 0  0.5600000000000001 0.26 0  0.58 0.26 0  0.6 0.26 0  0.62 0.26 0  0.64 0.26 0  0.66 0.26 0  0.68 0.26 0  0.7 0.26 0  0.72 0.26 0  0.74 0.26 0  0.76 0.26 0  0.78 0.26 0  0.8 0.26 0  0.82 0.26 0  0.84 0.26 0  0.86 0.26 0  0.88 0.26 0  0.9 0.26 0  0.92 0.26 0  0.9399999999999999 0.26 0  0.96 0.26 0  0.98 0.26 0  1 0.26 0  0 0.28 0  0.02 0.28 0  0.04 0.28 0  0.06 0.28 0  0.08 0.28 0  0.1 0.28 0  0.12 0.28 0  0.14 0.28 0  0.16 0.28 0  0.18 0.28 0  0.2 0.28 0  0.22 0.28 0  0.24 0.28 0  0.26 0.28 0  0.28 0.28 0  0.3 0.28 0  0.32 0.28 0  0.34 0.28 0  0.36 0.28 0  0.38 0.28 0  0.4 0.28 0  0.42 0.28 0  0.44 0.28 0  0.46 0.28 0  0.48 0.28 0  0.5 0.28 0  0.52 0.28 0  0.54 0.28 0  0.5600000000000001 0.28 0  0.58 0.28 0  0.6 0.28 0  0.62 0.28 0  0.64 0.28 0  0.66 0.28 0  0.68 0.28 0  0.7 0.28 0  0.72 0.28 0  0.74 0.28 0  0.76 0.28 0  0.78 0.28 0  0.8 0.28 0  0.82 0.28 0  0.84 0.28 0  0.86 0.28
[...]
<PointData  Scalars="q_f"> 
<DataArray  type="Float64"  Name="q_f"  format="ascii">9.9999887424614176e-01  9.9999860548455255e-01  9.9999746385021016e-01  9.9999514007321544e-01  9.9999089152343501e-01  9.9998351856251677e-01  9.9997127043459888e-01  9.9995177573378990e-01  9.9992206047266896e-01  9.9987871868827083e-01  9.9981828746741108e-01  9.9973783958188700e-01  9.9963574070988659e-01  9.9951243572897819e-01  9.9937105564699891e-01  9.9921760824557793e-01  9.9906056253821374e-01  9.9890977035571382e-01  9.9877486470631616e-01  9.9866347644630227e-01  9.9857974137211925e-01  9.9852356252602392e-01  9.9849092228121372e-01  9.9847524149508549e-01  9.9846945037297807e-01  9.9846818479726263e-01  9.9846945037322621e-01  9.9847524149494826e-01  9.9849092228104608e-01  9.9852356252605556e-01  9.9857974137187866e-01  9.9866347644652576e-01  9.9877486470617050e-01  9.9890977035558759e-01  9.9906056253810049e-01  9.9921760824561390e-01  9.9937105564707818e-01  9.9951243572908544e-01  9.9963574071000449e-01  9.9973783958192963e-01  9.9981828746782275e-01  9.9987871868834477e-01  9.9992206047245691e-01  9.9995177573393546e-01  9.9997127043480927e-01  9.9998351856228029e-01  9.9999089152390896e-01  9.9999514007299328e-01  9.9999746385042498e-01  9.9999860548409436e-01  9.9999887424614176e-01  9.9999849251508621e-01  9.9999889409947007e-01  9.9999812492829465e-01  9.9999655410902188e-01  9.9999381973712897e-01  9.9998929051520324e-01  9.9998209152219164e-01  9.9997110279429202e-01  9.9995499808142474e-01  9.9993234742529347e-01  9.9990179450320382e-01  9.9986230232065931e-01  9.9981343749310669e-01  9.9975563891855634e-01  9.9969039927649539e-01  9.9962028660240232e-01  9.9954875480845962e-01  9.9947973686915581e-01  9.9941707437816774e-01  9.9936389599663122e-01  9.9932209444253950e-01  9.9929204927484871e-01  9.9927269331537527e-01  9.9926193231855454e-01  9.9925732430212266e-01  9.9925683980715818e-01  9.9925948817494481e-01  9.9926562437804578e-01  9.9927684057309496e-01  9.9929546936358959e-01  9.9932384187036782e-01  9.9936351500263965e-01  9.9941468609479833e-01  9.9947595032180647e-01  9.9954445040802842e-01  9.9961635564350981e-01  9.9968752396286253e-01  9.9975416944666307e-01  9.9981338104413853e-01  9.9986340109169469e-01  9.9990364865021153e-01  9.9993453738273685e-01  9.9995717423949515e-01  9.9997302995963078e-01  9.9998365244092502e-01  9.9999046215153586e-01  9.9999463704736946e-01  9.9999707037277730e-01  9.9999836913897178e-01  9.9999885057200566e-01  9.9999849251508621e-01  9.9999665771180246e-01  9.9999773769302158e-01  9.9999630712328169e-01  9.9999330522858210e-01  9.9998817690093522e-01  9.9997986926578386e-01  9.9996697363437370e-01  9.9994778230586867e-01  9.9992040655142467e-01  9.9988298802497411e-01  9.9983399854068089e-01  9.9977259156245846e-01  9.9969893924735331e-01  9.9961447047838237e-01  9.9952192799600570e-01  9.9942519150338260e-01  9.9932886470486582e-01  9.9923768508853983e-01  9.9915586842781468e-01  9.9908652836636169e-01  9.9903130478947655e-01  9.9899029253562943e-01  9.9896229371880019e-01  9.9894533899631932e-01  9.9893735470134726e-01  9.9893681177628657e-01  9.9894319118660058e-01  9.9895714204849895e-01  9.9898028486125612e-01  9.9901470423322825e-01  9.9906225865871279e-01  9.9912388573407662e-01  9.9919908453246176e-01  9.9928571090380003e-01  9.9938013871151465e-01  9.9947774421821367e-01  9.9957358985270062e-01  9.9966314071553952e-01  9.9974285303630228e-01  9.9981052291663441e-01  9.9986535689554845e-01  9.9990779823709264e-01  9.9993919309878576e-01  9.9996139842905951e-01  9.9997642056844360e-01  9.9998614116890683e-01  9.9999214867670150e-01  9.9999565880003705e-01  9.9999747702717401e-01  9.9999792590361591e-01  9.9999665771180246e-01  9.9999217730007173e-01  9.9999493311874688e-01  9.9999183782126722e-01  9.9998522098740639e-01  9.9997392103654403e-01  9.9995565078571536e-01  9.9992736262713455e-01  9.9988539427029266e-01  9.9982574614304565e-01  9.9974455782185301e-01  9.9963876382323802e-01  9.9950683907255378e-01  9.9934948299125315e-01  9.9917005921985191e-01  9.9897462634829937e-01  9.9877147014797174e-01  9.9857016571847945e-01  9.9838032612198835e-01  9.9821029144676765e-01  9.9806604570274504e-01  9.9795060568418503e-01  9.9786401791454660e-01  9.9780395735186100e-01  9.9776678147586106e-01  9.9774878807832545e-01  9.9774737696023752e-01  9.9776183527498363e-01  9.9779355119618407e-01  9.9784559451052113e-01  9.9792175618501788e-01  9.9802527524700901e-01  9.9815756545418111e-01  9.9831726287143563e-01  9.9849984251533785e-01  9.9869791332236435e-01  9.9890213029733144e-01  9.9910250809442802e-01  9.9928982680644984e-01  9.9945681608751658e-01  9.9959888560735999e-01  9.9971430716823528e-01  9.9980389876828757e-01  9.9987036856731670e-01  9.9991752142469448e-01  9.9994951232633678e-01  9.9997026902262132e-01  9.9998312793175947e-01  9.9999065199239667e-01  9.9999452752136953e-01  9.9999535786850402e-01  9.9999217730007173e-01  9.9998216623992198e-01  9.9998894895722112e-01  9.9998246095249443e-01  9.9996827321847193e-01  9.9994401007266309e-01  9.9990479610992677e-01  9.9984413169790820e-01  9.9975423554722864e-01  9.9962665777851178e-01  9.9945331141844396e-01  9.9922787192768181e-01  9.9894734315340195e-01  9.9861346141558949e-01  9.9823355177387429e-01  9.9782050344529272e-01  9.9739170434256863e-01  9.9696703124811792e-01  9.9656625610470373e-01  9.9620641133600807e-01  9.9589969267177403e-01  9.9565235370909833e-01  9.9546480530022396e-01  9.9533285075534028e-01  9.9524973921700655e-01  9.9520855385046414e-01  9.9520439059090249e-01  9.9523583144218475e-01  9.9530536625576138e-01  9.9541864579161310e-01  9.9558271432946654e-01  9.9580361514893789e-01  9.9608392930547096e-01  9.9642085239821165e-01  9.9680531377593184e-01  9.9722240775691984e-01  9.9765308548165454e-01  9.9807673402176256e-01  9.9847404506454285e-01  9.9882952304330619e-01  9.9913311745936961e-01  9.9938073378743497e-01  9.9957368378088107e-01  9.9971737869309463e-01  9.9981968403155219e-01  9.9988933249824519e-01  9.9993466999270098e-01  9.9996284424296944e-01  9.9997937884153465e-01  9.9998790655284453e-01  9.9998963594423829e-01  9.9998216623992198e-01  9.9996079950629624e-01  9.9997675299473332e-01  9.9996372801010402e-01  9.9993448595265277e-01  9.9988441166617315e-01  9.9980353822622603e-01  9.9967857393200321e-01  9.9949367664721167e-01  9.9923175713515799e-01  9.9887662220690121e-01  9.9841583494864794e-01  9.9784385676825516e-01  9.9716478780442597e-01  9.9639392782118452e-01  9.9555751942364823e-01  9.9469041788151835e-01  9.9383196756932091e-01  9.9302088391861143e-01  9.9229025350810796e-01  9.9166375206329072e-01  9.9115384797024086e-01  9.9076224018156689e-01  9.9048225860245742e-01  9.9030257300465974e-01  9.9021136123501252e-01  9.9020005807842570e-01  9.9026591055108570e-01  9.9041278992862780e-01  9.9065004314176786e-01  9.9098956603830046e-01  9.9144167768004310e-01  9.9201068757613087e-01  9.9269120113489961e-01  9.9346613903953152e-01  9.9430711786915260e-01  9.9517728636844749e-01  9.9603606784567478e-01  9.9684473272376906e-01  9.9757151024025803e-01  9.9819512745902905e-01  9.9870616228869302e-01  9.9910622203981525e-01  9.9940549008680468e-01  9.9961946690680281e-01  9.9976572853610823e-01  9.9986130010576546e-01  9.9992090720622306e-01  9.9995601176264048e-01  9.9997415525800315e-01  9.9997764764081987e-01  9.9996079950629624e-01  9.9991702662420934e-01  9.9995287904824015e-01  9.9992785792994576e-01  9.9986997377412401e-01  9.9977073992380028e-01  9.9961065496254098e-01  9.9936371443083527e-01  9.9899910313783824e-01  9.9848386622245544e-01  9.9778718417705659e-01  9.9688596468603397e-01  9.9577084571825270e-01  9.9445124387505446e-01  9.9295795127704278e-01  9.9134213004222371e-01  9.8967037058318919e-01  9.8801656085128975e-01  9.8645228842785393e-01  9.8503797537332927e-01  9.8381671015221550e-01  9.8281188847755430e-01  9.8202868428664891e-01  9.8145848630132937e-01  9.8108500221726003e-01  9.8089070501000242e-01  9.8086246525042708e-01  9.8099542444075105e-01  9.8129440934527268e-01  9.8177252821392769e-01  9.8244704522808901e-01  9.8333315182436587e-01  9.8443677270447494e-01  9.8574797112135570e-01  9.8723669941889780e-01  9.8885237561155104e-01  9.9052794871437899e-01  9.9218789771788340e-01  9.9375841374212026e-01  9.9517733327455671e-01  9.9640151025125390e-01  9.9741016834041807e-01  9.9820399453305186e-01  9.9880085431907628e-01  9.9922967371034521e-01  9.9952412218401709e-01  9.9971734407447566e-01  9.9983833995394256e-01  9.9990987050766245e-01  9.9994691781647105e-01  9.9995361206377686e-01  9.9991702662420934e-01  9.9983092666082862e-01  9.9990797298566281e-01  9.9986201720690848e-01  9.9975198828047318e-01  9.9956317954981666e-01  9.9925909147817693e-01  9.9879108015004914e-01  9.9810192931273223e-01  9.9713112831520456e-01  9.9582306049717439e-01  9.9413745849725488e-01  9.9206031104418146e-01  9.8961259873953378e-01  9.8685410748542335e-01  9.8388037374390203e-01  9.8081250596412395e-01  9.7778174350034508e-01  9.7491237329869873e-01  9.7230722054717778e-01  9.7003898624540452e-01  9.6814860022148319e-01  9.6664950845454478e-01  9.6553546643788402e-01  9.6478935650588893e-01  9.6439133589940695e-01  9.6432544997500036e-01  9.6458423060686638e-01  9.6517081738740529e-01  9.6609811363362608e-01  9.6738463330619995e-01  9.6904707754685371e-01  9.7109037359330597e-01  9.7349693616306965e-01  9.7621797250412057e-01  9.7917006380392224e-01  9.8223937464273736e-01  9.8529367005762147e-01  9.8819968732734131e-01  9.9084152025645700e-01  9.9313537392320961e-01  9.9503738089977434e-01  9.9654345484425133e-01  9.9768242953876241e-01  9.9850521360768096e-01  9.9907306218485581e-01  9.9944746360923775e-01  9.9968295446401523e-01  9.9982274610149302e-01  9.9989529188264858e-01  9.9990741118005544e-01  9.9983092666082862e-01  9.9966837227821537e-01  9.9982681840966547e-01  9.9974620005355519e-01  9.9954537324047621e-01  9.9920048246292381e-01  9.9864621466674464e-01  9.9779561739502687e-01  9.9654737175489805e-01  9.9479584846396885e-01  9.9244617147219927e-01  9.8943291138404132e-01  9.8573890293703847e-01  9.8140934537401736e-01  9.7655634572002781e-01  9.7135083693069468e-01  9.6600219388971365e-01  9.6072992008907176e-01  9.5573484704876277e-01  9.5117771525718542e-01  9.4717014856827075e-01  9.4377804161279299e-01  9.4103283532489435e-01  9.3894447037356465e-01  9.3751147697447323e-01  9.3672696573592851e-01  9.3658183008768126e-01  9.3706705861605288e-01  9.3817613635353725e-01  9.3990713679839200e-01  9.4226291359451775e-01  9.4524713761138257e-01  9.4885439648056613e-01  9.5305478125515153e-01  9.5777687795702415e-01  9.6289593031466036e-01  9.6823389127595660e-01  9.7357442850965414e-01  9.7869030410071056e-01  9.8337577538246612e-01  9.8747499423540397e-01  9.9089923638919863e-01  9.9362991599876949e-01  9.9570878699561749e-01  9.9721987278433433e-01  9.9826874825089351e-01  9.9896397026384554e-01  9.9940339117041233e-01  9.9966540319338748e-01  9.9980163822180412e-01  9.9982227367825194e-01  9.9966837227821537e-01  9.9937392136748715e-01  9.9968593100781433e-01  9.9955101915001332e-01  9.9919905484559912e-01  9.9859421216775335e-01  9.9762481750770360e-01  9.9614243721186391e-01  9.9397614831809145e-01  9.9095101595064639e-01  9.8691471991648994e-01  9.8176951647721000e-01  9.7550301425051389e-01  9.6820915530836826e-01  9.6009122732416752e-01  9.5144242749426244e-01  9.4260612538729771e-01  9.3392559529365204e-01  9.2569820539345715e-01  9.1814840719868873e-01  9.1142631320595746e-01  9.0562730626104693e-01  9.0081922694665140e-01  8.9706252232027317e-01  8.9441553511350891e-01  8.9292677101609685e-01  8.9262235133900414e-01  8.9349744304811995e-01  8.9551698120223622e-01  8.9862618243421344e-01  9.0276648133739457e-01  9.0788841308049351e-01  9.1395178278802069e-01  9.2090777066373375e-01  9.2866702681655011e-01  9.3706739856174237e-01  9.4585824696519538e-01  9.5471250000367569e-01  9.6326578774432225e-01  9.7117081683468132e-01  9.7814996978677105e-01  9.8403130284791995e-01  9.8876031790761454e-01  9.9238826357116217e-01  9.9504403824954457e-01  9.9689943065424225e-01  9.9813651985953422e-01  9.9892266575052535e-01  9.9939369146364698e-01  9.9963907046717915e-01  9.9967191544417811e-01  9.9937392136748715e-01  9.9886242838928796e-01  9.9945102586717904e-01  9.9923598386957257e-01  9.9864366138909966e-01  9.9762521942406135e-01  9.9599833249028258e-01  9.9352120172620229e-01  9.8991952112286530e-01  9.8491923081584032e-01  9.7829177291593272e-01  9.6990636852272660e-01  9.5977762400000555e-01  9.4809367451118121e-01  9.3521153673267865e-01  9.2161368685739875e-01  9.0783256791461442e-01  8.9436396271930163e-01  8.8159883581129250e-01  8.6979913478357584e-01  8.5912468182511181e-01  8.4969375149882298e-01  8.4164346086543884e-01  8.3515833806968465e-01  8.3045482466140030e-01  8.2773297953550262e-01  8.2712039460303299e-01  8.2863306051741703e-01  8.3216884688680570e-01  8.3753730135580784e-01  8.4451621671868993e-01  8.5291227390042079e-01  8.6259639568351953e-01  8.7349221777149311e-01  8.8551858639754555e-01  8.9851263132275883e-01  9.1217247644287880e-01  9.2604986080465912e-01  9.3959896674616872e-01  9.5226324487352676e-01  9.6356911728515404e-01  9.7319733693246591e-01  9.8101497703644969e-01  9.8706619425745246e-01  9.9153196588567905e-01  9.9467485238239939e-01  9.9678431583193472e-01  9.9813288567271508e-01  9.9894516594365879e-01  9.9936913276290296e-01  9.9941752532678241e-01  9.9886242838928796e-01  9.9801081680036519e-01  9.9907495919140121e-01  9.9874911755029083e-01  9.9779180625781216e-01  9.9614505127146347e-01  9.9352483070820641e-01  9.8955560511165996e-01  9.8381936955669480e-01  9.7591169812064604e-01  9.6551579085973904e-01  9.5248433169227542e-01  9.3690891685204547e-01  9.1915238454022785e-01  8.9982288773280983e-01  8.7968257462201105e-01  8.5950772756261906e-01  8.3994373597355110e-01  8.2141223052253476e-01  8.0411404599734471e-01  7.8812964870505686e-01  7.7356876375256356e-01  7.6069357854697472e-01  7.4995330887208400e-01  7.4191395594387088e-01  7.3711675025478252e-01  7.3592475282421232e-01  7.3841402183029148e-01  7.4434669110477647e-01  7.5323876000361267e-01  7.6450493350333848e-01  7.7762881646491455e-01  7.9228608185634819e-01  8.0836149710986516e-01  8.2584974771850284e-01  8.4468956197899614e-01  8.6461416608679575e-01  8.8508860297931746e-01  9.0535750688782224e-01  9.2457658485301986e-01  9.4197281853306369e-01  9.5697865897236334e-01  9.6930544937926566e-01  9.7894755654230992e-01  9.8613049756414717e-01  9.9122816380431455e-01  9.9467527741418804e-01  9.9689370672255384e-01  9.9823765789823860e-01  9.9894052235893327e-01  9.9900538531838845e-01  9.9801081680036519e-01  9.9665269351737673e-01  9.9849706338584998e-01  9.9802891198978527e-01  9.9654271588089405e-01  9.9398513589367132e-01  9.8993440746466987e-01  9.8383506029148649e-01  9.7508379891983421e-01  9.6312215714670024e-01  9.4755332294252748e-01  9.2826500301361603e-01  9.0552439333847612e-01  8.8000508201814387e-01  8.5271284762082677e-01  8.2480329411519104e-01  7.9732937077123001e-01  7.7100627578738157e-01  7.4610218212764290e-01  7.2252477600489395e-01  7.0008188699513463e-01  6.7880134561774808e-01  6.5915950693831149e-01  6.4211020824952947e-01  6.2889939753556046e-01  6.2074161924226712e-01  6.1847811884263648e-01  6.2232846814546394e-01  6.3181491780335786e-01  6.4589512675320160e-01  6.6327551756750169e-01  6.8279977036528339e-01  7.0375642485914314e-01  7.2597116228940761e-01  7.4964630452451109e-01  7.7503362414315946e-01  8.0210366549646317e-01  8.3035978528940024e-01  8.5885727856886751e-01  8.8639042721472949e-01  9.1175421028203296e-01  9.3398358360421530e-01  9.5250445607825263e-01  9.6717357206505417e-01  9.7822191750072518e-01  9.8613862384441076e-01  9.9153738640332867e-01  9.9503766198560661e-01  9.9717162154554984e-01  9.9828999970903887e-01  9.9836634275984482e-01  9.9665269351737673e-01  9.9457970595851031e-01  9.9764502061074345e-01  9.9700948387710009e-01  9.9479246592511716e-01  9.9097566266591763e-01  9.8496265898312230e-01  9.7597201606756934e-01  9.6318199835216067e-01  9.4587873919077492e-01  9.2363434244922626e-01  8.9648392412376954e-01  8.6504624544613118e-01  8.3052366273421052e-01  7.9453027343259852e-01  7.5874440528648490e-01  7.2446630137905288e-01  6.9225342445066607e-01  6.6183155393383319e-01  6.3237909694044392e-01  6.0309213927185001e-01  5.7378705816732933e-01  5.4528010813697336e-01  5.1938560113234311e-01  4.9853013206612207e-01  4.8512186494192733e-01  4.8088349061183788e-01  4.8634923045642753e-01  5.0068212311220461e-01  5.2189891533612665e-01  5.4746711149405924e-01  5.7507944000567546e-01  6.0330619219308446e-01  6.3185620569358780e-01  6.6134545637311071e-01  6.9270471756359320e-01  7.2652434311870329e-01  7.6262678901166581e-01  7.9999930580421486e-01  8.3703874064943518e-01  8.7195754352136778e-01  9.0318828101794246e-01  9.2966955933059758e-01  9.5096266493101722e-01  9.6720932152907835e-01  9.7898130719008924e-01  9.8708651814377191e-01  9.9238516356885897e-01  9.9563800079690312e-01  9.9734666901767977e-01  9.9741863908001793e-01  9.9457970595851031e-01  9.9155417749539276e-01  9.9644040420812019e-01  9.9562927419268599e-01  9.9244994391273544e-01  9.8697384785428555e-01  9.7839879494472770e-01  9.6568084688157585e-01  9.4776909585026436e-01  9.2383509843490896e-01  8.9353578714795368e-01  8.5725859209054744e-01  8.1626045726276508e-01  7.7259940655431014e-01  7.2878063130135406e-01  6.8712458804059739e-01  6.4902267707235362e-01  6.1441054232707260e-01  5.8179978645247143e-01  5.4895974348938947e-01  5.1397958495321505e-01  4.7626220582733908e-01  4.3708594355776004e-01  3.9955293712881412e-01  3.6792633452435569e-01  3.4654829831825590e-01  3.3866011918855038e-01  3.4546234243037710e-01  3.6570730494354337e-01  3.9601485307840800e-01  4.3188284345430772e-01  4.6907390079228478e-01  5.0486687772980909e-01  5.3867795171542776e-01  5.7179644655227824e-01  6.0639235669957126e-01  6.4431426061882191e-01  6.8622662647422394e-01  7.3134961368678530e-01  7.7774152930554896e-01  8.2289241144795500e-01  8.6437290727152238e-01  9.0034145312390035e-01  9.2980718175699195e-01  9.5264173484419645e-01  9.6940381401347697e-01  9.8107174618781701e-01  9.8877029026166796e-01  9.9353253716174339e-01  9.9604042465229792e-01  9.9607551638357661e-01  9.9155417749539276e-01  9.8733688657644803e-01  9.9480861444555935e-01  9.9384273305137816e-01  9.8945690227396954e-01  9.8189804920710888e-01  9.7014120460365172e-01  9.5286441067427874e-01  9.2881531331843337e-01  8.9715539399175559e-01  8.5783621298593449e-01  8.1192491882138684e-01  7.6174055873365420e-01  7.1064447795638308e-01  6.6237075244256816e-01  6.1993742243422612e-01  5.8446658942946417e-01  5.5451353972063810e-01  5.2642680304295675e-01  4.9569858364649172e-01  4.5868182325509887e-01  4.1401051442872416e-01  3.6338635578126072e-01  3.1155794105087042e-01  2.6538403318621417e-01  2.3214979251045001e-01  2.1761285814687972e-01  2.2434112499228737e-01  2.5085460156779626e-01  2.9194260763786289e-01  3.4018396668109746e-01  3.8823186543319133e-01  4.3108099368293173e-01  4.6743279366329382e-01  4.9953095159474947e-01  5.3158097065594800e-01  5.6766173849541623e-01  6.1013970957106634e-01  6.5904726858527085e-01  7.1234000597947944e-01  7.6670496101797925e-01  8.1854935001981222e-01  8.6485319731946753e-01  9.0368912126974144e-01  9.3435910025326774e-01  9.5721995733145726e-01  9.7333344969818880e-01  9.8407538750443524e-01  9.9077580154330147e-01  9.9431445538365359e-01  9.9425835751469183e-01  9.8733688657644803e-01  9.8173126440503378e-01  9.9269307308241694e-01  9.9163335897766502e-01  9.8580859135674082e-01  9.7576098103199749e-01  9.6024800195173210e-01  9.3768593661209698e-01  9.0670060306357148e-01  8.6662753886869826e-01  8.1803360306388984e-01  7.6312877707998661e-01  7.0585497952472098e-01  6.5141838564041943e-01  6.0511625300743022e-0