<?xml version="1.0"?>
<VTKFile type="UnstructuredGrid"  version="0.1"  >
<UnstructuredGrid>
<Piece  NumberOfPoints="961" NumberOfCells="1800">
<Points>
<DataArray  type="Float64"  NumberOfComponents="3"  format="ascii">0 0 0  0.03333333333333333 0 0  0.06666666666666667 0 0  0.1 0 0  0.1333333333333333 0 0  0.1666666666666667 0 0  0.2 0 0  0.2333333333333333 0 0  0.2666666666666667 0 0  0.3 0 0  0.3333333333333333 0 0  0.3666666666666666 0 0  0.4 0 0  0.4333333333333333 0 0  0.4666666666666667 0 0  0.5 0 0  0.5333333333333333 0 0  0.5666666666666667 0 0  0.6 0 0  0.6333333333333333 0 0  0.6666666666666666 0 0  0.7 0 0  0.7333333333333333 0 0  0.7666666666666667 0 0  0.8 0 0  0.8333333333333334 0 0  0.8666666666666667 0 0  0.9 0 0  0.9333333333333333 0 0  0.9666666666666667 0 0  1 0 0  0 0.03333333333333333 0  0.03990461425965437 0.03990461425965437 0  0.07427596743875327 0.03762146181698748 0  0.1064539891189844 0.03419687171544187 0  0.1381740164280422 0.03114246108066579 0  0.1699546904315404 0.02875405119803127 0  0.2019178759995172 0.02714366577553258 0  0.2340353920554976 0.02640034853527234 0  0.2662075803410331 0.02659392813886393 0  0.2983120855667892 0.02775964369477775 0  0.3302535944148376 0.02991496158181238 0  0.3620095132808851 0.03311550473427916 0  0.3937046134417831 0.03752820466347354 0  0.4258403640695737 0.04346373177113412 0  0.4600036785923109 0.05091712098301733 0  0.4994110739808626 0.05614557675492068 0  0.5396704257942503 0.05105908898592361 0  0.574170328331733 0.04338410158947447 0  0.6064005907369228 0.03739697482480945 0  0.6381451639147848 0.03299057106321293 0  0.6699389179822246 0.02981388502593298 0  0.701909989575055 0.02769151168629316 0  0.7340330785174032 0.02656524626317269 0  0.7662101820378382 0.02641354444445223 0  0.7983202876350699 0.02719538378894997 0  0.8302697533746801 0.02883653395822739 0  0.8620389123553769 0.03124469907749147 0  0.8937589245014306 0.03429866599639275 0  0.92594779120593 0.03766570081335074 0  0.9602416868861794 0.03975831297895938 0  0.9999999999999999 0.03333333333333333 0  0 0.06666666666666667 0  0.03762146181698747 0.07427596743875324 0  0.07264972958252081 0.07264972958252081 0  0.105578777387391 0.06770528324865131 0  0.1376280831058675 0.06237007671776908 0  0.1695507998711145 0.05780822675037503 0  0.2016685182301077 0.05457336952029329 0  0.234019131797893 0.05302133677646736 0  0.2664573348115118 0.05337486326322618 0  0.2987703969302902 0.0556883318299387 0  0.3308230038251695 0.05987627450107373 0  0.3626596394408496 0.06580425464761309 0  0.3945921018036105 0.07330786621275313 0  0.4273327776720315 0.08195476802958578 0  0.4620546943604071 0.09022251185420259 0  0.499511990462824 0.09427680575643539 0  0.5373426739467322 0.09047646858804258 0  0.572495174236907 0.08208079085660029 0  0.6054918003353414 0.07328167118215471 0  0.6375784200640867 0.06569968504553615 0  0.6695228627916723 0.05975308398739682 0  0.7016543485531476 0.05558867164797205 0  0.734014961157659 0.05332780443377503 0  0.7664620599852819 0.05303814407211802 0  0.7987851488031914 0.05464213152681615 0  0.8308515854646864 0.0578993298529174 0  0.862710054546188 0.06244174284742796 0  0.8946799853990637 0.06770176398876959 0  0.9274883645044293 0.07251163544565652 0  0.9623342991111586 0.07405220877105254 0  1 0.06666666666666667 0  0 0.1 0  0.03419687171544186 0.1064539891189844 0  0.0677052832486513 0.105578777387391 0  0.1005257585627561 0.1005257585627561 0  0.1331256382562793 0.0939323216380996 0  0.1659817351684754 0.08757495937615704 0  0.1993741411186432 0.08268191617049388 0  0.2332913372448855 0.08017617312534978 0  0.2674043232295548 0.08063932340865121 0  0.3012319117748586 0.08411743234129915 0  0.3344771381112319 0.09016953708845919 0  0.3671525516116235 0.09811534322324943 0  0.3995454683404188 0.1071169266660906 0  0.4321392386357685 0.1160092421767827 0  0.4654492146147139 0.1230240515646994 0  0.4996207030038901 0.1259028870457118 0  0.533944781142221 0.1232577523560011 0  0.567546655033721 0.1162662999812915 0  0.6004283050842392 0.1072628854580324 0  0.6330667857307961 0.09813017072031732 0  0.6659474764361023 0.09009502329668652 0  0.6993564322950215 0.08401910166899632 0  0.7332861096610648 0.08058170967891715 0  0.7674103450617074 0.08018970584150839 0  0.8012504166918296 0.08273711733089489 0  0.8345121905866619 0.08760864098233317 0  0.867212165986202 0.0938820867879424 0  0.8996435643610394 0.1003564355713039 0  0.9322982359570297 0.1053200145540114 0  0.965701333962799 0.1062410754775541 0  1 0.1 0  0 0.1333333333333333 0  0.03114246108066579 0.1381740164280423 0  0.06237007671776906 0.1376280831058675 0  0.09393232163809957 0.1331256382562794 0  0.1262776074721439 0.1262776074721439 0  0.1598941856490151 0.1187062739454434 0  0.1951121228416501 0.1121395748636146 0  0.231809128561368 0.1084090994269942 0  0.2690930234063016 0.1089208097782246 0  0.3055950498838967 0.1136663978677262 0  0.3405458548386592 0.1213553304618725 0  0.3739036165522071 0.1304189890286751 0  0.406028893868448 0.13947495187603 0  0.4374222807524437 0.1473128187601172 0  0.4685536065224768 0.1527791866067766 0  0.4997139667804337 0.1548442246626541 0  0.5309407071459646 0.1529987062139325 0  0.5622343304428027 0.1476443111136917 0  0.5938438455625143 0.1397892839280176 0  0.6262216081095452 0.1306198254674313 0  0.6598604314042466 0.1214062347063581 0  0.6950942736028395 0.1136079617374675 0  0.7318038595215689 0.1088578818176802 0  0.7690993117866947 0.1084147436482424 0  0.8056138781837907 0.1121445922568807 0  0.8405805106677593 0.1186085442127877 0  0.873960382465753 0.1260396174120685 0  0.9061179131260045 0.1327878339326305 0  0.9375582570965481 0.1372899454044985 0  0.9687553008924141 0.1379610876218368 0  1 0.1333333333333333 0  0 0.1666666666666667 0  0.02875405119803127 0.1699546904315405 0  0.057808226750375 0.1695507998711146 0  0.08757495937615703 0.1659817351684754 0  0.1187062739454434 0.1598941856490152 0  0.1521241026644131 0.1521241026644132 0  0.1888801576209031 0.1441548373209744 0  0.2293924448519958 0.138775422387371 0  0.2717049218394079 0.1392648825555575 0  0.3118109190448149 0.1454726245360371 0  0.348183434463789 0.1542800100344536 0  0.3813484304917385 0.1632239203828101 0  0.4123258930514941 0.1710588242725105 0  0.4420035279401601 0.1771612684940559 0  0.4710231300665095 0.1811039760931964 0  0.4998041109865006 0.1825459030496718 0  0.5286137408434072 0.1813230847471629 0  0.557711401966881 0.1775456596814633 0  0.5875101303662087 0.1715208950958826 0  0.6186641356633102 0.1636548081523181 0  0.6520979986698553 0.1545610781228221 0  0.68886599436901 0.1455314057712242 0  0.7293883065418979 0.1392026521008053 0  0.7717103159728664 0.1387670004190935 0  0.8118262548697981 0.1440333766604243 0  0.8482105947842764 0.1517894049421245 0  0.8813914556162116 0.1594194891803202 0  0.9123913589196019 0.1654878093275513 0  0.9421006700930885 0.1691484144883521 0  0.9711634660169985 0.1697302466045151 0  1 0.1666666666666667 0  0 0.2 0  0.02714366577553258 0.2019178759995175 0  0.05457336952029329 0.2016685182301078 0  0.08268191617049386 0.1993741411186433 0  0.1121395748636146 0.1951121228416502 0  0.1441548373209743 0.1888801576209033 0  0.1809390215882117 0.1809390215882118 0  0.225575250226809 0.1736895726665432 0  0.2756505262909013 0.1740281506581487 0  0.3195182648202339 0.1815732109988993 0  0.3559538120868462 0.1899565958235221 0  0.3878350500199602 0.1969861051312602 0  0.4172311334942384 0.2024262078080132 0  0.4453094291618894 0.2063514869315304 0  0.4727328172161898 0.2087825548237092 0  0.4998970164767589 0.2096791999970108 0  0.5270720050796764 0.2090064824507668 0  0.5545254110001611 0.2067751710823339 0  0.5826510127280997 0.2030059582802559 0  0.6121203634857737 0.1976550284984817 0  0.644143379079855 0.1905967178714464 0  0.680932888064159 0.1819640775856388 0  0.7255736725848547 0.1740193520972811 0  0.7756536553325623 0.1736130409633461 0  0.8195258658187398 0.1804741332289862 0  0.8559666228577641 0.188173744814176 0  0.8878554075439541 0.1943861216791687 0  0.9172628825831222 0.1987495832403613 0  0.9453578684334882 0.2012148511625743 0  0.9728046161945612 0.2016797123504286 0  1 0.2 0  0 0.2333333333333333 0  0.02640034853527233 0.2340353920554977 0  0.05302133677646734 0.2340191317978931 0  0.08017617312534978 0.2332913372448857 0  0.1084090994269941 0.2318091285613683 0  0.1387754223873709 0.2293924448519962 0  0.1736895726665431 0.2255752502268092 0  0.2199247689802861 0.2199247689802863 0  0.2808619925261917 0.2193608268267011 0  0.3263915519051962 0.2248108176056871 0  0.361240002064483 0.2289732056750202 0  0.3915934803429987 0.2318490035729039 0  0.4198182986543033 0.2338901339938581 0  0.4469677801220925 0.2353156035874906 0  0.4735878893049221 0.2362061290649999 0  0.499993865298548 0.2365791667540332 0  0.5264020172710718 0.2364316732339014 0  0.5530279078244634 0.2357574141150353 0  0.5801852607772787 0.2345346888131398 0  0.6084187957763189 0.2326848036703084 0  0.6387842174282226 0.2299902606681182 0  0.6736961942900036 0.2259436091030344 0  0.7199279392675543 0.2200422753000273 0  0.7808608995744006 0.2191390911685308 0  0.8263869558164852 0.2243463445589277 0  0.8612329990429326 0.2282896839838152 0  0.8915852562630063 0.2309006881764526 0  0.919810294140567 0.2325896549170845 0  0.9469618559216453 0.2335379400040644 0  0.9735864555525967 0.2337898179579768 0  1 0.2333333333333333 0  0 0.2666666666666667 0  0.02659392813886393 0.2662075803410331 0  0.05337486326322618 0.266457334811512 0  0.08063932340865121 0.267404323229555 0  0.1089208097782246 0.2690930234063019 0  0.1392648825555575 0.2717049218394082 0  0.1740281506581487 0.2756505262909016 0  0.2193608268267009 0.280861992526192 0  0.2799641883823948 0.279964188382395 0  0.3259991377203726 0.2740650656311319 0  0.3608257276249552 0.2700190365963369 0  0.3911805073937238 0.2673240294869216 0  0.4194677474494561 0.2654726214922688 0  0.44673428278330
[...]
<CellData  Scalars="q"> 
<DataArray  type="Float64"  Name="q"  format="ascii">1.0119099584331863e+00   1.0119099584331863e+00   1.0000000000000000e+00   1.0000000000000000e+00   1.0000000000000000e+00   1.0000000000000000e+00   1.0000000000000000e+00   1.0000000000000000e+00   1.0020819669195422e+00   1.0000000000000000e+00   1.0148167138784054e+00   1.0046871590483830e+00   1.0233943538763108e+00   1.0167986014468604e+00   1.0231370436955360e+00   1.0214703757793258e+00   1.0138693097432827e+00   1.0160351819087368e+00   1.0003210230634527e+00   1.0032579844007514e+00   1.0000000000000000e+00   1.0000000000000000e+00   1.0000000000000000e+00   1.0000000000000000e+00   1.0090818033799660e+00   1.0000000000000000e+00   1.0444087741763688e+00   1.0000000000000000e+00   1.0862474278675167e+00   1.0292379550345547e+00   1.0690929967053642e+00   1.0478642514840062e+00   1.0229426990272983e+00   1.0181904581311005e+00   1.0000000000000000e+00   1.0000000000000000e+00   1.0000000000000000e+00   1.0000000000000000e+00   1.0000000000000000e+00   1.0000000000000000e+00   1.0103153727817502e+00   1.0000000000000000e+00   1.0213479169017199e+00   1.0134625192680526e+00   1.0242525016066963e+00   1.0210403692980408e+00   1.0177733078739752e+00   1.0186173928403852e+00   1.0056035597484272e+00   1.0079623009281686e+00   1.0000000000000000e+00   1.0000000000000000e+00   1.0000000000000000e+00   1.0000000000000000e+00   1.0000000000000000e+00   1.0000000000000000e+00   1.0167559013786474e+00   1.0000000000000000e+00   1.0031411329434738e+00   1.0195810227451505e+00   1.0000000000000000e+00   1.0000000000000000e+00   1.0009353537099162e+00   1.0009353537099162e+00   1.0000000000000000e+00   1.0138579263753229e+00   1.0000000000000000e+00   1.0106239682267235e+00   1.0000000000000000e+00   1.0077062324518864e+00   1.0066286818791057e+00   1.0098252563622758e+00   1.0156090379863483e+00   1.0148075397622620e+00   1.0183633511993542e+00   1.0180562599420342e+00   1.0135398876425932e+00   1.0171101763658499e+00   1.0050550115980017e+00   1.0140005269174406e+00   1.0000000000000000e+00   1.0134188895275673e+00   1.0000000000000000e+00   1.0182446270689143e+00   1.0048041115473565e+00   1.0250843025368592e+00   1.0021984595761553e+00   1.0238638161687097e+00   1.0000000000000000e+00   1.0047022587002394e+00   1.0148856051929551e+00   1.0042706578478791e+00   1.0188587726653631e+00   1.0289585253208071e+00   1.0037008985536351e+00   1.0315915923342507e+00   1.0000000000000000e+00   1.0180041653788827e+00   1.0000000000000000e+00   1.0090256266127560e+00   1.0030696942180120e+00   1.0083981935262138e+00   1.0132865768999835e+00   1.0130778099471949e+00   1.0182181617338937e+00   1.0174370983513794e+00   1.0153643457921879e+00   1.0177720843165035e+00   1.0076148605170960e+00   1.0148681846729750e+00   1.0004894828855229e+00   1.0124694585389806e+00   1.0000000000000000e+00   1.0128229298897697e+00   1.0000000000000000e+00   1.0128414924138303e+00   1.0004977244618201e+00   1.0047245588786240e+00   1.0167559016047611e+00   1.0000000000000000e+00   1.0000000000000000e+00   1.0000000000000000e+00   1.0138579263753227e+00   1.0000000000000000e+00   1.0478569106121445e+00   1.0478569106121443e+00   1.0484285847270975e+00   1.0621886504754150e+00   1.0372460164867656e+00   1.0556880495205978e+00   1.0263800391688749e+00   1.0395314525899042e+00   1.0204015955469135e+00   1.0257952152419076e+00   1.0199603457664190e+00   1.0208520195690529e+00   1.0250322294681888e+00   1.0270552644374025e+00   1.0356940520718414e+00   1.0428738516698435e+00   1.0506093194564765e+00   1.0633038533245540e+00   1.0643763772253729e+00   1.0798231474152367e+00   1.0657025364600248e+00   1.0811684887074045e+00   1.0439763944609046e+00   1.0579488157377213e+00   1.0109481066366588e+00   1.0203165972189907e+00   1.0173358560759613e+00   1.0096796217675348e+00   1.0621532897162389e+00   1.0520272202910528e+00   1.0795069269768427e+00   1.0880949566417644e+00   1.0657479757543333e+00   1.0890154618055765e+00   1.0450844215533728e+00   1.0699316637078016e+00   1.0290638890492461e+00   1.0460650219368186e+00   1.0208475111433317e+00   1.0280449213394607e+00   1.0195315802701348e+00   1.0207771399137451e+00   1.0234610733939222e+00   1.0249216599037094e+00   1.0312138956420698e+00   1.0372772486969803e+00   1.0403145575559742e+00   1.0514970194251241e+00   1.0443651519008004e+00   1.0582455648221272e+00   1.0332086500284547e+00   1.0469546353184880e+00   1.0000000000000000e+00   1.0128414926071050e+00   1.0000000000000000e+00   1.0000000000000000e+00   1.0000000000000000e+00   1.0000000000000000e+00   1.0106239682267235e+00   1.0000000000000000e+00   1.0621886504754148e+00   1.0484285847270971e+00   1.0861764319212592e+00   1.0861764319212590e+00   1.0802006067916745e+00   1.0966479898679440e+00   1.0548668417674949e+00   1.0753596774349599e+00   1.0311567263691721e+00   1.0435812531559174e+00   1.0267744274333301e+00   1.0278188432348081e+00   1.0457596027138194e+00   1.0426499817478858e+00   1.0765918416748883e+00   1.0773571936410420e+00   1.1027511159636216e+00   1.1088051971832527e+00   1.1100378006407805e+00   1.1190647652673822e+00   1.0900859212767613e+00   1.1009764626907437e+00   1.0475841279796636e+00   1.0600965905947104e+00   1.0107037149490843e+00   1.0181462533853165e+00   1.0178728853286494e+00   1.0080985482702520e+00   1.0638349332994783e+00   1.0435205275662838e+00   1.1051932688782440e+00   1.0931907970016295e+00   1.1170692054197089e+00   1.1240849030732250e+00   1.0985323628514325e+00   1.1211646551381125e+00   1.0642409369348382e+00   1.0896343666602475e+00   1.0344467404366708e+00   1.0500023245695962e+00   1.0254879291309584e+00   1.0282599515761497e+00   1.0397333170080723e+00   1.0374391974465649e+00   1.0640602284869269e+00   1.0653521322175092e+00   1.0808653067378349e+00   1.0878561959445499e+00   1.0759392667726320e+00   1.0870942574720710e+00   1.0443651520721835e+00   1.0582455649944111e+00   1.0000000000000000e+00   1.0128229300938361e+00   1.0000000000000000e+00   1.0000000000000000e+00   1.0000000000000000e+00   1.0020819669195424e+00   1.0077062324518868e+00   1.0000000000000000e+00   1.0556880495205974e+00   1.0372460164867656e+00   1.0966479898679438e+00   1.0802006067916741e+00   1.1082509978347819e+00   1.1082509978347819e+00   1.0856629594359477e+00   1.1007616121063841e+00   1.0475360094218105e+00   1.0632513860422859e+00   1.0356339250019637e+00   1.0358729128452397e+00   1.0659014147333399e+00   1.0567303556848058e+00   1.1059607052748555e+00   1.1001353595519476e+00   1.1257877690780878e+00   1.1242220113675570e+00   1.1150266870965786e+00   1.1164932383461241e+00   1.0795587842128394e+00   1.0843177153479839e+00   1.0356652322754385e+00   1.0430724283262880e+00   1.0062475871842604e+00   1.0106341402258776e+00   1.0097941740026839e+00   1.0030846476826734e+00   1.0457160793007774e+00   1.0259007363264316e+00   1.0940179142889175e+00   1.0687534294467771e+00   1.1295381866946426e+00   1.1119937199669292e+00   1.1316972364091242e+00   1.1329659873179145e+00   1.1002351750684962e+00   1.1182663380951441e+00   1.0537520382881569e+00   1.0727319923362419e+00   1.0337305524314813e+00   1.0369250831864432e+00   1.0565546419773755e+00   1.0494583308793684e+00   1.0889210540693304e+00   1.0852996514408011e+00   1.1001062624549183e+00   1.1021933605531546e+00   1.0808653068979688e+00   1.0878561961689446e+00   1.0403145577968265e+00   1.0514970196590487e+00   1.0004894830177868e+00   1.0124694586959597e+00   1.0000000000000000e+00   1.0000000000000000e+00   1.0046871590483830e+00   1.0148167138784052e+00   1.0098252563622763e+00   1.0066286818791057e+00   1.0395314525899046e+00   1.0263800391688755e+00   1.0753596774349594e+00   1.0548668417674949e+00   1.1007616121063841e+00   1.0856629594359477e+00   1.1005923829640825e+00   1.1005923829640827e+00   1.0573728322389226e+00   1.0684593054946441e+00   1.0350279201457642e+00   1.0303476927182091e+00   1.0694951169066196e+00   1.0533343472322851e+00   1.1041447189175622e+00   1.0904816718816828e+00   1.1065329462546809e+00   1.0976064821088007e+00   1.0835437046960521e+00   1.0779514981917619e+00   1.0500437909966369e+00   1.0488283691508500e+00   1.0197521592485026e+00   1.0221027534393383e+00   1.0024196693398304e+00   1.0046988193987330e+00   1.0036488078353920e+00   1.0004660612686556e+00   1.0237384961465639e+00   1.0108979966261256e+00   1.0573017179907529e+00   1.0346302155473277e+00   1.0940500344858985e+00   1.0668097977484308e+00   1.1177227452689940e+00   1.0981233333621656e+00   1.1145293569797772e+00   1.1131390728887900e+00   1.0645664763891476e+00   1.0773240463814058e+00   1.0326430105803102e+00   1.0312999849144231e+00   1.0602631139541268e+00   1.0465715874909733e+00   1.0899597036812227e+00   1.0798227149649466e+00   1.0889210539405718e+00   1.0852996520928595e+00   1.0640602288400005e+00   1.0653521322375401e+00   1.0312138958339057e+00   1.0372772489632391e+00   1.0076148605601560e+00   1.0148681847470469e+00   1.0056035596585533e+00   1.0079623008644343e+00   1.0167986014468600e+00   1.0233943538763106e+00   1.0148075397622618e+00   1.0156090379863478e+00   1.0257952152419076e+00   1.0204015955469132e+00   1.0435812531559177e+00   1.0311567263691721e+00   1.0632513860422863e+00   1.0475360094218109e+00   1.0684593054946447e+00   1.0573728322389238e+00   1.0331403852761831e+00   1.0331403852761836e+00   1.0111354146492715e+00   1.0058244995651497e+00   1.0435617088416864e+00   1.0161268245148072e+00   1.0639598399582981e+00   1.0470987979021957e+00   1.0582522854485470e+00   1.0467325629275466e+00   1.0389948781079137e+00   1.0317672507593743e+00   1.0202631594265783e+00   1.0168338440115008e+00   1.0073141352783952e+00   1.0067064900753078e+00   1.0008930750040861e+00   1.0015368269321103e+00   1.0007264798701843e+00   1.0001145774232016e+00   1.0073023967007599e+00   1.0023628634470734e+00   1.0214918153020274e+00   1.0097614540637319e+00   1.0421520489909699e+00   1.0234653528061477e+00   1.0644540505457478e+00   1.0423811400889085e+00   1.0721155984623238e+00   1.0556081379236879e+00   1.0369968814129007e+00   1.0346567098273780e+00   1.0103029150864034e+00   1.0066067115351993e+00   1.0392827904694251e+00   1.0144106466893827e+00   1.0602631110660887e+00   1.0465715933404947e+00   1.0565546427465156e+00   1.0494583258999934e+00   1.0397333171332566e+00   1.0374391981647788e+00   1.0234610735854437e+00   1.0249216601724380e+00   1.0153643458099162e+00   1.0177720844108757e+00   1.0177733077882629e+00   1.0186173928176472e+00   1.0214703757793258e+00   1.0231370436955358e+00   1.0180562599420340e+00   1.0183633511993542e+00   1.0208520195690529e+00   1.0199603457664195e+00   1.0278188432348085e+00   1.0267744274333310e+00   1.0358729128452402e+00   1.0356339250019646e+00   1.0303476927182103e+00   1.0350279201457648e+00   1.0058244995651502e+00   1.0111354146492719e+00   1.0025052427241827e+00   1.0025052427241827e+00   1.0087075387076798e+00   1.0061221270932736e+00   1.0270042883434212e+00   1.0266211991599614e+00   1.0239564835649275e+00   1.0280592315387134e+00   1.0129154222686176e+00   1.0165125382844336e+00   1.0048801620335341e+00   1.0068968139017138e+00   1.0012902882508101e+00   1.0017727356265458e+00   1.0003760909784496e+00   1.0002807597687229e+00   1.0004043316636355e+00   1.0004258039180025e+00   1.0017726572633920e+00   1.0017583058514123e+00   1.0065443417186111e+00   1.0058962701243903e+00   1.0157374142117490e+00   1.0145070320449463e+00   1.0268249695529785e+00   1.0260818156323375e+00   1.0255906606331362e+00   1.0294988828054965e+00   1.0053165722580677e+00   1.0095754647724366e+00   1.0026350784865006e+00   1.0023771246176303e+00   1.0103029292391330e+00   1.0066067162525478e+00   1.0326430047414528e+00   1.0312999776569414e+00   1.0337305508177135e+00   1.0369250919662543e+00   1.0254879298918891e+00   1.0282599528307064e+00   1.0195315805340119e+00   1.0207771404804280e+00   1.0182181618764725e+00   1.0174370986245593e+00   1.0242525016274726e+00   1.0210403694047823e+00   1.0160351819087372e+00   1.0138693097432832e+00   1.0171101763658508e+00   1.0135398876425943e+00   1.0270552644374038e+00   1.0250322294681902e+00   1.0426499817478876e+00   1.0457596027138214e+00   1.0567303556848073e+00   1.0659014147333419e+00   1.0533343472322860e+00   1.0694951169066202e+00   1.0161268245148070e+00   1.0435617088416855e+00   1.0061221270932736e+00   1.0087075387076794e+00   1.0387137770916093e+00   1.0387137770916093e+00   1.0633818259786576e+00   1.0816672126546236e+00   1.0497254929766879e+00   1.0753243297046684e+00   1.0286711502939139e+00   1.0509371424357845e+00   1.0125889589352521e+00   1.0270355425609834e+00   1.0032077420410466e+00   1.0096605697484322e+00   1.0000295183469654e+00   1.0010714524761024e+00   1.0019208334910297e+00   1.0011212475714084e+00   1.0087841721868345e+00   1.0093760137192649e+00   1.0212706755600174e+00   1.0254643943377586e+00   1.0385259305201577e+00   1.0476181958194188e+00   1.0549000608709846e+00   1.0692440243624795e+00   1.0542781213066630e+00   1.0740323038763639e+00   1.0179635160414449e+00   1.0481694018400678e+00   1.0053165747582637e+00   1.0095754787871913e+00   1.0369968911967982e+00   1.0346567182830635e+00   1.0645664806720063e+00   1.0773240757999307e+00   1.0537520476518825e+00   1.0727320088685373e+00   1.0344467412413973e+00   1.0500023246119612e+00   1.0208475117883178e+00   1.0280449226114152e+00   1.0132865771907231e+00   1.0130778102223101e+00   1.0213479170230046e+00   1.0134625194337121e+00   1.0032579844007521e+00   1.0003210230634529e+00   1.0140005269174419e+00   1.0050550115980030e+00   1.0428738516698450e+00   1.0356940520718427e+00   1.0773571936410449e+00   1.0765918416748905e+00   1.1001353595519503e+00   1.1059607052748588e+00   1.0904816718816814e+00   1.1041447189175624e+00   1.0470987979021931e+00   1.0639598399582955e+00   1.0266211991599605e+00   1.0270042883434198e+00   1.0816672126546223e+00   1.0633818259786563e+00   1.1288032668965999e+00   1.1288032668965990e+00   1.1157259655424394e+00   1.1384858106305011e+00   1.0809433534285582e+00   1.1135626068856608e+00   1.0431752893578261e+00   1.0707665037134864e+00   1.0144025580180336e+00   1.0305025182978036e+00   1.0013826882276184e+00   1.0059675868230253e+00   1.0064666725543121e+00   1.0042680726592663e+00   1.0278082030767748e+00   1.0253136754464172e+00   1.0600186458000933e+00   1.0619982863804363e+00   1.0939409444694523e+00   1.1017794602205169e+00   1.1148719250592332e+00   1.1273087052400492e+00   1.1023465468860354e+00   1.1203580996969429e+00   1.0542781307861020e+00   1.0740323005321883e+00   1.0255906554937442e+00   1.0294988804202527e+00   1.0721156264667246e+00   1.0556081390895988e+00   1.1145294135014960e+00   1.1131391316749697e+00   1.1002351874251022e+00   1.1182663353815259e+00   1.0642409389214376e+00   1.0896343689503785e+00   1.0290638899761215e+00   1.0460650231127226e+00   1.0030696944212290e+00   1.0083981937214253e+00   1.0103153728734591e+00   1.0000000000000000e+00   1.0000000000000000e+00   1.0000000000000000e+00   1.0134188895275693e+00   1.0000000000000000e+00   1.0633038533245558e+00   1.0506093194564790e+00   1.1088051971832549e+00   1.1027511159636232e+00   1.1242220113675603e+00   1.1257877690780911e+00   1.0976064821087990e+00   1.1065329462546809e+00   1.0467325629275432e+00   1.0582522854485432e+00   1.0280592315387116e+00   1.0239564835649249e+00   1.0753243297046646e+00   1.0497254929766842e+00   1.1384858106304985e+00   1.1157259655424339e+00   1.1621813059808164e+00   1.1621813059808153e+00   1.1392782960875545e+00   1.1633791312914177e+00   1.0874077333441179e+00   1.1206917186567624e+00   1.0352675832757336e+00   1.0613974863603779e+00   1.0072703110237520e+00   1.0170775107815113e+00   1.0162124147904437e+00   1.0122809753973276e+00   1.0558157740829066e+00   1.0482489236848400e+00   1.1064659723500598e+00   1.1029684572811891e+00   1.1450548162006537e+00   1.1472174632301575e+00   1.1509778604707137e+00   1.1582470858191252e+00   1.1148719262337321e+00   1.1273087051790849e+00   1.0549000561398343e+00   1.0692440260140992e+00   1.0268249757305550e+00   1.0260818141289825e+00   1.0644540658419404e+00   1.0423811460407941e+00   1.1177227450353531e+00   1.0981233490501399e+00   1.1316972232909550e+00   1.1329659731113004e+00   1.0985323639679834e+00   1.1211646593374962e+00   1.0450844217396149e+00   1.0699316636190459e+00   1.0000000000000000e+00   1.0090256268801474e+00   1.0000000000000000e+00   1.0000000000000000e+00   1.0000000000000000e+00   1.0000000000000000e+00   1.0182446270689169e+00   1.0000000000000000e+00   1.0798231474152393e+00   1.0643763772253758e+00   1.1190647652673849e+00   1.1100378006407827e+00   1.1164932383461257e+00   1.1150266870965801e+00   1.0779514981917606e+00   1.0835437046960523e+00   1.0317672507593718e+00   1.0389948781079124e+00   1.0165125382844309e+00   1.0129154222686156e+00   1.0509371424357787e+00   1.0286711502939094e+00   1.1135626068856557e+00   1.0809433534285522e+00   1.1633791312914166e+00   1.1392782960875523e+00   1.1700875334168896e+00   1.1700875334168894e+00   1.1282972840622834e+00   1.1521529944983120e+00   1.0632186883279329e+00   1.0931176840725163e+00   1.0188723774358903e+00   1.0330631032462958e+00   1.0311978276115921e+00   1.0245565006975139e+00   1.0851314529469900e+00   1.0725332087484540e+00   1.1398253193443990e+00   1.1313325587269687e+00   1.1634826232395015e+00   1.1603863996296084e+00   1.1450548165381038e+00   1.1472174634189471e+00   1.0939409447240043e+00   1.1017794608320184e+00   1.0385259316095334e+00   1.0476181962348070e+00   1.0157374152472802e+00   1.0145070327282899e+00   1.0421520493338350e+00   1.0234653529766582e+00   1.0940500368162400e+00   1.0668098005635676e+00   1.1295381900473502e+00   1.1119937201090435e+00   1.1170692087778269e+00   1.1240849067664658e+00   1.0657479746207696e+00   1.0890154608758720e+00   1.0000000000000000e+00   1.0180041648160185e+00   1.0000000000000000e+00   1.0000000000000000e+00   1.0000000000000000e+00   1.0090818033799676e+00   1.0250843025368639e+00   1.0048041115473607e+00   1.0811684887074076e+00   1.0657025364600294e+00   1.1009764626907461e+00   1.0900859212767642e+00   1.0843177153479844e+00   1.0795587842128407e+00   1.0488283691508498e+00   1.0500437909966371e+00   1.0168338440115006e+00   1.0202631594265785e+00   1.0068968139017127e+00   1.0048801620335339e+00   1.0270355425609801e+00   1.0125889589352506e+00   1.0707665037134819e+00   1.0431752893578232e+00   1.1206917186567615e+00   1.0874077333441159e+00   1.1521529944983131e+00   1.1282972840622847e+00   1.1449045938939943e+00   1.1449045938939957e+00   1.0914139299686045e+00   1.1145327478274316e+00   1.0317892881063997e+00   1.0489913591167053e+00   1.0438051643009432e+00   1.0338196756865101e+00   1.1008779853778627e+00   1.0836016808370750e+00   1.1405027111882720e+00   1.1277968518842081e+00   1.1398253194514472e+00   1.1313325587555347e+00   1.1064659726554580e+00   1.1029684575096939e+00   1.0600186463118566e+00   1.0619982867319739e+00   1.0212706760382040e+00   1.0254643947357449e+00   1.0065443419797446e+00   1.0058962703429795e+00   1.0214918161249713e+00   1.0097614542795346e+00   1.0573017190789513e+00   1.0346302163650083e+00   1.0940179144048940e+00   1.0687534296240679e+00   1.1051932681827052e+00   1.0931907959868634e+00   1.0795069248586984e+00   1.0880949548379519e+00   1.0037008977162074e+00   1.0315915904230444e+00   1.0000000000000000e+00   1.0000000000000000e+00   1.0000000000000000e+00   1.0444087741763717e+00   1.0238638161687135e+00   1.0021984595761575e+00   1.0579488157377253e+00   1.0439763944609075e+00   1.0600965905947131e+00   1.0475841279796660e+00   1.0430724283262889e+00   1.0356652322754403e+00   1.0221027534393390e+00   1.0197521592485035e+00   1.0067064900753082e+00   1.0073141352783961e+00   1.0017727356265456e+00   1.0012902882508103e+00   1.0096605697484311e+00