<?xml version="1.0"?>
<VTKFile type="UnstructuredGrid"  version="0.1"  >
<UnstructuredGrid>
<Piece  NumberOfPoints="961" NumberOfCells="1800">
<Points>
<DataArray  type="Float64"  NumberOfComponents="3"  format="ascii">0 0 0  0.03333333333333333 0 0  0.06666666666666667 0 0  0.1 0 0  0.1333333333333333 0 0  0.1666666666666667 0 0  0.2 0 0  0.2333333333333333 0 0  0.2666666666666667 0 0  0.3 0 0  0.3333333333333333 0 0  0.3666666666666666 0 0  0.4 0 0  0.4333333333333333 0 0  0.4666666666666667 0 0  0.5 0 0  0.5333333333333333 0 0  0.5666666666666667 0 0  0.6 0 0  0.6333333333333333 0 0  0.6666666666666666 0 0  0.7 0 0  0.7333333333333332 0 0  0.7666666666666666 0 0  0.8 0 0  0.8333333333333334 0 0  0.8666666666666667 0 0  0.9 0 0  0.9333333333333333 0 0  0.9666666666666667 0 0  1 0 0  0 0.03333333333333333 0  0.0407521271644696 0.04075212716446962 0  0.07478903338163591 0.03795667130415598 0  0.1067094472798042 0.03426351947608334 0  0.1382911712594786 0.03107020273914827 0  0.1700022634513338 0.02859973771242962 0  0.2019350899175921 0.02693994475656976 0  0.2340440892658153 0.02617548076299024 0  0.2662149825334224 0.02637830226371157 0  0.2983107223536584 0.02758590996510506 0  0.3302224539945815 0.029819776103866 0  0.3619124371890416 0.03315170213848805 0  0.3934812255513221 0.03780031942697877 0  0.4253931447714309 0.0442252727416959 0  0.4592772704142157 0.05279896591177154 0  0.4991937591338872 0.0597187535746573 0  0.5404631591275462 0.05311085507249868 0  0.5746660596399775 0.04418679066004973 0  0.6066494340933417 0.03768151667337231 0  0.638259501876592 0.03303156834983104 0  0.6699852375125337 0.02972058406811981 0  0.7019266853617274 0.02751809333023791 0  0.7340416758501435 0.02634892425836977 0  0.7662178249401537 0.02618713668582906 0  0.7983196080784587 0.02698892525083525 0  0.8302400973380435 0.02867742991514906 0  0.8619450418660763 0.03116363166955124 0  0.8935429546611637 0.0343463232837418 0  0.9255199578869885 0.03794768427266981 0  0.9595755856157873 0.04042441440490823 0  1 0.03333333333333333 0  0 0.06666666666666667 0  0.03795667130415598 0.07478903338163595 0  0.07296275823992719 0.07296275823992719 0  0.1057610420679573 0.06774805243204876 0  0.1376985301761952 0.06220243366924001 0  0.1695564863592571 0.05748654382515233 0  0.2016552579486929 0.05414672520982706 0  0.2340213781076721 0.05254504345136594 0  0.2664880848599537 0.05291573512894731 0  0.2988147640025776 0.05531637534078238 0  0.3308467773007406 0.05965915560941043 0  0.3626194160708877 0.06581944251981552 0  0.3944442816829239 0.07367084390554768 0  0.4270574056675071 0.0828502893420507 0  0.4617343844619854 0.0918588297579921 0  0.4994459060298344 0.09648637762725008 0  0.5376412833714277 0.09219700577194859 0  0.5727907152149789 0.08302579681318756 0  0.6056657957673208 0.073667190592245 0  0.6376449107709766 0.06572489310002397 0  0.6695266859457983 0.05953985426781599 0  0.7016403066016352 0.05521712944813287 0  0.7340170718425277 0.05286713050620026 0  0.7664932082463425 0.05255903501463875 0  0.7988305950807122 0.05421050170711747 0  0.8308776036291506 0.05756869386745944 0  0.8626743379393179 0.06225814746141586 0  0.8945413071659023 0.06771492271502057 0  0.927231845502858 0.07276815397726159 0  0.9620523157091941 0.07448004158865783 0  1 0.06666666666666667 0  0 0.1 0  0.03426351947608334 0.1067094472798043 0  0.06774805243204877 0.1057610420679573 0  0.1004943110738693 0.1004943110738693 0  0.1330232806290826 0.09365821640767345 0  0.1658466738685677 0.08707360955261077 0  0.1992636919664207 0.08199704803785232 0  0.2332634274636852 0.07939048371133239 0  0.2674850825415108 0.07987692841643169 0  0.3013884084847315 0.08350383156548037 0  0.3346502427697395 0.08979772817016848 0  0.3672865046939372 0.0980545145312692 0  0.3996028936944689 0.1074306518956127 0  0.4321137943508311 0.116752057483154 0  0.4653826247934602 0.1241856897030982 0  0.4995986797229766 0.1272880548210036 0  0.5339931843908681 0.1244575865575513 0  0.5675779361552487 0.1170481736279108 0  0.6003903947466287 0.1076035506079535 0  0.6329610341463847 0.09808455345278135 0  0.6658107602243346 0.08972949132207575 0  0.6992453053426999 0.0834055631241291 0  0.7332581269204811 0.07981638476294453 0  0.7674915356346577 0.07940056724881789 0  0.8014079812593893 0.0820457576705374 0  0.8346874067998354 0.08709446097011074 0  0.8673500739924711 0.09358615823779301 0  0.8997081445286921 0.1002918543644398 0  0.9322850765156041 0.1054586921456858 0  0.9656536763822746 0.1064570449499803 0  1 0.1 0  0 0.1333333333333333 0  0.03107020273914827 0.1382911712594786 0  0.06220243366924001 0.1376985301761952 0  0.09365821640767348 0.1330232806290826 0  0.1259164840529851 0.1259164840529851 0  0.1595050045686594 0.1180329612328286 0  0.1947992316431661 0.1111516901930689 0  0.231706237507003 0.1072088754655786 0  0.2692768889233409 0.1077494884725473 0  0.3059686613486879 0.1127574537491562 0  0.340975954792989 0.1208129759735637 0  0.3742919769166121 0.1302594088606757 0  0.4063210515270942 0.1396780448370646 0  0.4376001010404311 0.1478387314359802 0  0.4686272768985538 0.153552513681209 0  0.4997076185686154 0.1557251818839488 0  0.5308614081623729 0.1537933736504164 0  0.5620614435262028 0.148200650187075 0  0.5935665370524243 0.140021865529507 0  0.6258588092858802 0.1304825766312379 0  0.6594705229438359 0.1208751435331823 0  0.6947811814842202 0.1126984907939387 0  0.7317010659715377 0.1076803719955602 0  0.7692835124438403 0.1072122818948002 0  0.8059881463881787 0.1111491227627822 0  0.8410118340626145 0.1179162493649188 0  0.8743509586898875 0.1256490391141254 0  0.9064138401042734 0.1326499247444054 0  0.9377418514791015 0.1373256613700888 0  0.9688363678311228 0.1380549578160583 0  1 0.1333333333333333 0  0 0.1666666666666667 0  0.02859973771242961 0.1700022634513337 0  0.05748654382515229 0.169556486359257 0  0.08707360955261075 0.1658466738685677 0  0.1180329612328286 0.1595050045686593 0  0.1513405632032819 0.1513405632032819 0  0.1881660512750834 0.1428389258696287 0  0.2290996356856094 0.1369709663569765 0  0.2721279436569123 0.1375003666591223 0  0.3125949023536074 0.1442314819662901 0  0.349001031976949 0.1535997902464561 0  0.3820408948520299 0.1629870119066757 0  0.4128399567591076 0.1711488667496935 0  0.4423337310507707 0.1774876958084652 0  0.4711819494144813 0.181584454918695 0  0.4998052762477753 0.1830869407921544 0  0.5284593849888873 0.1818189488059017 0  0.5573897019631044 0.1778988125073719 0  0.5870091739201446 0.1716441734349956 0  0.6179915378226363 0.1634518070567369 0  0.6513152497899172 0.1539056077829841 0  0.6881525320392518 0.1442922499463541 0  0.7290958824319506 0.1374216038403856 0  0.7721334495036433 0.1369682808629611 0  0.8126101100616279 0.1427056969805104 0  0.8490279402123782 0.150972054738562 0  0.8820837470355631 0.1589881636424073 0  0.9129055367842933 0.1653125921265355 0  0.9424313048462604 0.1691223958619902 0  0.9713225695009976 0.1697599024513406 0  1 0.1666666666666667 0  0 0.2 0  0.02693994475656975 0.201935089917592 0  0.05414672520982702 0.2016552579486928 0  0.08199704803785222 0.1992636919664205 0  0.1111516901930688 0.194799231643166 0  0.1428389258696286 0.1881660512750833 0  0.1794337966610663 0.1794337966610663 0  0.2247012047071306 0.1709710072792346 0  0.2767509673491292 0.1713814123439809 0  0.3210702051503617 0.1800986218820584 0  0.3572836948011212 0.1892756460932128 0  0.3888334152292137 0.1967441282812519 0  0.4179259429901618 0.2024371822655481 0  0.4457450503812832 0.206517554541321 0  0.4729440133454054 0.2090397096934085 0  0.4999029616486692 0.2099713303057289 0  0.5268732282301658 0.2092770174898227 0  0.5541031385235236 0.2069673284733779 0  0.5819701009404975 0.203055484829633 0  0.6111359614719692 0.1974640414414855 0  0.6428302976636926 0.1899740639588187 0  0.6794296029764346 0.180522962810798 0  0.7247004759242998 0.1713250491028693 0  0.7767538158608136 0.1709280373829007 0  0.8210764726457952 0.1789235091484483 0  0.8572942922695922 0.187389885869024 0  0.8888508721739019 0.1940118525302966 0  0.9179542398168106 0.1985920184159309 0  0.9457894970012274 0.2011694048095312 0  0.9730110741856918 0.2016803918833452 0  1 0.2 0  0 0.2333333333333333 0  0.02617548076299023 0.2340440892658152 0  0.05254504345136587 0.2340213781076719 0  0.07939048371133231 0.2332634274636851 0  0.1072088754655785 0.2317062375070029 0  0.1369709663569764 0.2290996356856095 0  0.1709710072792345 0.2247012047071308 0  0.2168935369278084 0.2168935369278086 0  0.2841268233894392 0.2161384496958984 0  0.3290795706785035 0.2237537558227569 0  0.3630432304688814 0.2285951922343755 0  0.3928016934555519 0.2317163573652569 0  0.4206143156888874 0.2338700456419722 0  0.4474548189231177 0.2353570825508378 0  0.4738232206254681 0.2362826148516097 0  0.5000037251533852 0.2366710125511967 0  0.526186280459301 0.2365206101548724 0  0.552559937874207 0.2358247488422348 0  0.5794069955990451 0.2345571132065924 0  0.6072249873242768 0.2326199546581998 0  0.636985031758012 0.2297267529241598 0  0.6709815256740103 0.2250949197599771 0  0.7168985915314089 0.2170324864059947 0  0.7841246067809962 0.2158751970877701 0  0.8290718864464257 0.223246195379605 0  0.8630317039375762 0.2278665555605682 0  0.8927877140619664 0.230716489521 0  0.920599431054315 0.2325084652433784 0  0.9474409640930961 0.2335067921518438 0  0.9738128629054632 0.2337821752137123 0  1 0.2333333333333333 0  0 0.2666666666666667 0  0.02637830226371156 0.2662149825334224 0  0.05291573512894727 0.2664880848599537 0  0.0798769284164316 0.2674850825415108 0  0.1077494884725473 0.2692768889233411 0  0.1375003666591222 0.2721279436569125 0  0.1713814123439807 0.2767509673491295 0  0.2161384496958982 0.2841268233894396 0  0.2829764587837383 0.2829764587837385 0  0.3286984189362714 0.2749154124519748 0  0.3626135236573355 0.2702838202386694 0  0.3923665069109724 0.2673898844497918 0  0.4202432653634058 0.2654508878172118 0  0.4472067178112232 0.2641802857
[...]
<CellData  Scalars="q"> 
<DataArray  type="Float64"  Name="q"  format="ascii">1.0146241805636977e+00   1.0146241805636977e+00   1.0000000000000000e+00   1.0000000000000000e+00   1.0000000000000000e+00   1.0000000000000000e+00   1.0000000000000000e+00   1.0000000000000000e+00   1.0023454024082992e+00   1.0000000000000000e+00   1.0160356658627920e+00   1.0052353791902218e+00   1.0252499888735083e+00   1.0182770103008001e+00   1.0249470702172889e+00   1.0232923303728225e+00   1.0149515228527539e+00   1.0174135188075275e+00   1.0003978865049818e+00   1.0036611874537100e+00   1.0000000000000000e+00   1.0000000000000000e+00   1.0000000000000000e+00   1.0000000000000000e+00   1.0115376953609534e+00   1.0000000000000000e+00   1.0506270066979821e+00   1.0000000000000000e+00   1.1050713505025120e+00   1.0312906545298000e+00   1.0834407544277014e+00   1.0571418474682373e+00   1.0277170633047605e+00   1.0204754315021041e+00   1.0000000000000000e+00   1.0000000000000000e+00   1.0000000000000000e+00   1.0000000000000000e+00   1.0000000000000000e+00   1.0000000000000000e+00   1.0110930563061282e+00   1.0000000000000000e+00   1.0229995283400171e+00   1.0146108933789337e+00   1.0261825457152951e+00   1.0228228474014684e+00   1.0192531392097786e+00   1.0202604246988605e+00   1.0061877994936470e+00   1.0088200028913756e+00   1.0000000000000000e+00   1.0000000000000000e+00   1.0000000000000000e+00   1.0000000000000000e+00   1.0000000000000000e+00   1.0000000000000000e+00   1.0193745476969762e+00   1.0000000000000000e+00   1.0038986953504028e+00   1.0233389867637761e+00   1.0000000000000000e+00   1.0000000000000000e+00   1.0014104298991913e+00   1.0014104298991913e+00   1.0000000000000000e+00   1.0163869563564800e+00   1.0000000000000000e+00   1.0118215926784886e+00   1.0000000000000000e+00   1.0085275726753156e+00   1.0074793240961126e+00   1.0109258023726790e+00   1.0172523096786059e+00   1.0164744148015048e+00   1.0202251899937116e+00   1.0200622607725842e+00   1.0149559162463744e+00   1.0189786656041919e+00   1.0057694258590297e+00   1.0155041369338165e+00   1.0000000000000000e+00   1.0148679691132718e+00   1.0005494137997071e+00   1.0204006574033198e+00   1.0065594967497635e+00   1.0286194522781780e+00   1.0029293397176002e+00   1.0289303657454998e+00   1.0000000000000000e+00   1.0071868946439819e+00   1.0173671348622328e+00   1.0057733663132449e+00   1.0230545343010098e+00   1.0358084972147110e+00   1.0048057683789113e+00   1.0368822559499904e+00   1.0000000000000000e+00   1.0201652365271232e+00   1.0000000000000000e+00   1.0100570358303200e+00   1.0035743285483099e+00   1.0093653878232689e+00   1.0146902491408851e+00   1.0145589576008165e+00   1.0200687276180962e+00   1.0193783026632204e+00   1.0169681944297184e+00   1.0197165086994322e+00   1.0085567784135892e+00   1.0164501019620924e+00   1.0008475617025514e+00   1.0137526569436586e+00   1.0000000000000000e+00   1.0142220397247987e+00   1.0000000000000000e+00   1.0145653185631154e+00   1.0003522476102662e+00   1.0060449558864040e+00   1.0193745479686429e+00   1.0000000000000000e+00   1.0000000000000000e+00   1.0000000000000000e+00   1.0163869563564800e+00   1.0000000000000000e+00   1.0539571661791765e+00   1.0539571661791767e+00   1.0528786233653962e+00   1.0676135340880304e+00   1.0405222456751071e+00   1.0604339154683433e+00   1.0290921969987998e+00   1.0432795771523775e+00   1.0230020947529121e+00   1.0289644234437150e+00   1.0226140742655123e+00   1.0238914083411901e+00   1.0278927893153278e+00   1.0304979383344539e+00   1.0391033635252553e+00   1.0472270613743524e+00   1.0551494694171999e+00   1.0690100257944777e+00   1.0706731827241069e+00   1.0870964383738164e+00   1.0736671222404655e+00   1.0896322779295105e+00   1.0519034852873501e+00   1.0658389213478916e+00   1.0163899821364974e+00   1.0251333809486176e+00   1.0238211951545626e+00   1.0138656772277677e+00   1.0743466483844806e+00   1.0624315310799597e+00   1.0898681593255739e+00   1.0991098227223601e+00   1.0722429506598248e+00   1.0976226096018871e+00   1.0492012570035718e+00   1.0761667619115687e+00   1.0320401504862962e+00   1.0504832042207806e+00   1.0234758705997562e+00   1.0314351431890016e+00   1.0221344505059990e+00   1.0238001632939120e+00   1.0261632173622424e+00   1.0281379327211273e+00   1.0341498434944787e+00   1.0410376829841064e+00   1.0437197343908426e+00   1.0559297684590356e+00   1.0483170487539641e+00   1.0631115079518421e+00   1.0367643592039286e+00   1.0513292064320834e+00   1.0000000000000000e+00   1.0145653200794176e+00   1.0000000000000000e+00   1.0000000000000000e+00   1.0000000000000000e+00   1.0000000000000000e+00   1.0118215926784888e+00   1.0000000000000000e+00   1.0676135340880306e+00   1.0528786233653964e+00   1.0934658064619773e+00   1.0934658064619773e+00   1.0877152806066510e+00   1.1057978274962128e+00   1.0610387427998904e+00   1.0837218619088964e+00   1.0359740393166261e+00   1.0499724078660773e+00   1.0313852788766611e+00   1.0331862928435478e+00   1.0516617060343338e+00   1.0492232930111611e+00   1.0843710568359841e+00   1.0862252640353312e+00   1.1120822745552541e+00   1.1193311695309662e+00   1.1200593193012691e+00   1.1298328426364721e+00   1.0992246247628248e+00   1.1103890793617459e+00   1.0538253714759058e+00   1.0665445299273069e+00   1.0134404035305935e+00   1.0211836684948770e+00   1.0211926148980617e+00   1.0101013160598766e+00   1.0711633298798575e+00   1.0489036453491454e+00   1.1151164160050613e+00   1.1021421884325491e+00   1.1277679400178628e+00   1.1356285803065427e+00   1.1080394274886403e+00   1.1330047929490508e+00   1.0714451959084974e+00   1.0996583725983480e+00   1.0396128125573958e+00   1.0571280788205397e+00   1.0299216568592955e+00   1.0336443578482948e+00   1.0449328734937937e+00   1.0433553761403580e+00   1.0704384136025196e+00   1.0728053788594163e+00   1.0878081844706808e+00   1.0960340115631362e+00   1.0822307500158888e+00   1.0944174675316256e+00   1.0483170502638144e+00   1.0631115091012882e+00   1.0000000000000000e+00   1.0142220421518795e+00   1.0000000000000000e+00   1.0000000000000000e+00   1.0000000000000000e+00   1.0023454024082992e+00   1.0085275726753158e+00   1.0000000000000000e+00   1.0604339154683435e+00   1.0405222456751073e+00   1.1057978274962137e+00   1.0877152806066519e+00   1.1193206982387069e+00   1.1193206982387076e+00   1.0969691676321665e+00   1.1131694498760691e+00   1.0575293369764245e+00   1.0746938765585161e+00   1.0443033197291789e+00   1.0455929392849215e+00   1.0767605657759671e+00   1.0687915206525940e+00   1.1185878430211988e+00   1.1148036013231215e+00   1.1384057804897629e+00   1.1381823197798830e+00   1.1255351747551847e+00   1.1277385770688353e+00   1.0868039366879834e+00   1.0918892862099763e+00   1.0392712721186279e+00   1.0470379220122079e+00   1.0073296493134709e+00   1.0118832885887894e+00   1.0111099547599955e+00   1.0036359886837862e+00   1.0501073719682497e+00   1.0283585944010849e+00   1.1026404537547776e+00   1.0749627269160924e+00   1.1422983266407103e+00   1.1228485363363316e+00   1.1454659271049736e+00   1.1467847008431051e+00   1.1133789535389336e+00   1.1328277220224618e+00   1.0646830345119669e+00   1.0855601917387374e+00   1.0420534401277326e+00   1.0468445397203716e+00   1.0660553736125040e+00   1.0603320670132748e+00   1.0994118064335807e+00   1.0978526943791900e+00   1.1097957471339919e+00   1.1134731070849040e+00   1.0878081839696243e+00   1.0960340109090048e+00   1.0437197358245891e+00   1.0559297685050550e+00   1.0008475632704368e+00   1.0137526578685705e+00   1.0000000000000000e+00   1.0000000000000000e+00   1.0052353791902220e+00   1.0160356658627920e+00   1.0109258023726793e+00   1.0074793240961128e+00   1.0432795771523780e+00   1.0290921969988001e+00   1.0837218619088969e+00   1.0610387427998906e+00   1.1131694498760694e+00   1.0969691676321669e+00   1.1237823842134416e+00   1.1237823842134411e+00   1.0790695721369401e+00   1.0940427384661737e+00   1.0488752146879623e+00   1.0477660931748669e+00   1.0847906037503772e+00   1.0731427373977986e+00   1.1208334063274523e+00   1.1085852822434705e+00   1.1191412957376399e+00   1.1118262408511388e+00   1.0918551899529332e+00   1.0866806261995130e+00   1.0545205519099579e+00   1.0534599150336774e+00   1.0214904206836879e+00   1.0240293581039346e+00   1.0027052811129635e+00   1.0051250585741487e+00   1.0039982511095404e+00   1.0005197024780292e+00   1.0257695200404409e+00   1.0118112958605581e+00   1.0625343446436071e+00   1.0378165993261519e+00   1.1043121475577855e+00   1.0740176543812083e+00   1.1323195125755183e+00   1.1110556868699069e+00   1.1403777280509311e+00   1.1389485923412814e+00   1.0879793544189846e+00   1.1053565119790285e+00   1.0455854281758516e+00   1.0488086477552976e+00   1.0738874363939765e+00   1.0645049460747302e+00   1.1044858636626611e+00   1.0960505768926996e+00   1.0994117937508145e+00   1.0978526932054373e+00   1.0704384123506474e+00   1.0728053659101775e+00   1.0341498426000455e+00   1.0410376815294331e+00   1.0085567774508439e+00   1.0164501003793274e+00   1.0061877972099948e+00   1.0088200003369012e+00   1.0182770103008003e+00   1.0252499888735085e+00   1.0164744148015050e+00   1.0172523096786064e+00   1.0289644234437154e+00   1.0230020947529124e+00   1.0499724078660775e+00   1.0359740393166266e+00   1.0746938765585159e+00   1.0575293369764247e+00   1.0940427384661735e+00   1.0790695721369401e+00   1.0487958053876916e+00   1.0487958053876918e+00   1.0190377859816306e+00   1.0092009975070484e+00   1.0642232553141926e+00   1.0266376251056639e+00   1.0782365601698443e+00   1.0651802577550828e+00   1.0679004722017642e+00   1.0570602987131230e+00   1.0438781125512864e+00   1.0367682310509365e+00   1.0223461645027587e+00   1.0189280627245230e+00   1.0079751949621663e+00   1.0073987401360094e+00   1.0009732873465420e+00   1.0016832384622012e+00   1.0007842437481527e+00   1.0001321876438440e+00   1.0079784318899030e+00   1.0026148064689429e+00   1.0238757689626901e+00   1.0109802841365461e+00   1.0480344308742793e+00   1.0270531213597471e+00   1.0759960033508749e+00   1.0513653287502658e+00   1.0982792956927778e+00   1.0764846132187198e+00   1.0537982584488614e+00   1.0505660692478833e+00   1.0177486361382584e+00   1.0101929535907255e+00   1.0585505336416134e+00   1.0242371425974646e+00   1.0738873539231157e+00   1.0645050278239336e+00   1.0660553665401422e+00   1.0603319087785352e+00   1.0449328643489666e+00   1.0433553757688288e+00   1.0261632154021814e+00   1.0281379305592790e+00   1.0169681917467461e+00   1.0197165065043299e+00   1.0192531354782837e+00   1.0202604214787905e+00   1.0232923303728227e+00   1.0249470702172889e+00   1.0200622607725849e+00   1.0202251899937125e+00   1.0238914083411905e+00   1.0226140742655132e+00   1.0331862928435487e+00   1.0313852788766624e+00   1.0455929392849226e+00   1.0443033197291811e+00   1.0477660931748680e+00   1.0488752146879645e+00   1.0092009975070488e+00   1.0190377859816315e+00   1.0040880121435711e+00   1.0040880121435711e+00   1.0155971017514696e+00   1.0094878004651340e+00   1.0386973519434064e+00   1.0425828500425125e+00   1.0306105752029864e+00   1.0363406527839287e+00   1.0156131999257796e+00   1.0201559188171661e+00   1.0057531107989868e+00   1.0081896745343080e+00   1.0014912741392323e+00   1.0020805377752811e+00   1.0004274731565466e+00   1.0003295447451179e+00   1.0004703188630297e+00   1.0004814552799042e+00   1.0020890434834997e+00   1.0020103046895543e+00   1.0078115285851490e+00   1.0068882967449500e+00   1.0193296467269621e+00   1.0174229234275030e+00   1.0348841999048628e+00   1.0331171181907606e+00   1.0414537860903865e+00   1.0421262673085316e+00   1.0084697453816958e+00   1.0169309321537552e+00   1.0042635329042280e+00   1.0039134706648427e+00   1.0177492963828829e+00   1.0101932316192399e+00   1.0455851915428696e+00   1.0488085666772753e+00   1.0420533876837590e+00   1.0468447317080554e+00   1.0299216629967773e+00   1.0336443757864702e+00   1.0221344500012819e+00   1.0238001691773468e+00   1.0200687264326793e+00   1.0193783035801831e+00   1.0261825427934776e+00   1.0228228457344062e+00   1.0174135188075277e+00   1.0149515228527544e+00   1.0189786656041926e+00   1.0149559162463748e+00   1.0304979383344555e+00   1.0278927893153291e+00   1.0492232930111642e+00   1.0516617060343374e+00   1.0687915206525975e+00   1.0767605657759713e+00   1.0731427373978009e+00   1.0847906037503805e+00   1.0266376251056637e+00   1.0642232553141926e+00   1.0094878004651335e+00   1.0155971017514687e+00   1.0558030600762680e+00   1.0558030600762673e+00   1.0860725721615767e+00   1.1104276788954097e+00   1.0597967313520127e+00   1.0884447492915770e+00   1.0328292294862931e+00   1.0578421525761195e+00   1.0140906614367304e+00   1.0300065908513449e+00   1.0035351277715370e+00   1.0105711991893749e+00   1.0000325603309117e+00   1.0011636684987770e+00   1.0021039697385405e+00   1.0012276129457331e+00   1.0096897714685347e+00   1.0102523594420525e+00   1.0238505153754822e+00   1.0281046334503330e+00   1.0443760670054572e+00   1.0535161054378221e+00   1.0665459884447317e+00   1.0804790095149568e+00   1.0743212324783895e+00   1.0901185964526863e+00   1.0291871576784208e+00   1.0703028128343339e+00   1.0084699520103451e+00   1.0169315681006306e+00   1.0537987089937484e+00   1.0505664728379451e+00   1.0879795887159149e+00   1.1053574829399828e+00   1.0646832576143377e+00   1.0855605229117717e+00   1.0396128209781990e+00   1.0571280704561508e+00   1.0234758793056500e+00   1.0314351653761014e+00   1.0146902503787121e+00   1.0145589578924048e+00   1.0229995270610046e+00   1.0146108927061455e+00   1.0036611874537102e+00   1.0003978865049818e+00   1.0155041369338171e+00   1.0057694258590302e+00   1.0472270613743553e+00   1.0391033635252576e+00   1.0862252640353363e+00   1.0843710568359892e+00   1.1148036013231257e+00   1.1185878430212037e+00   1.1085852822434732e+00   1.1208334063274552e+00   1.0651802577550806e+00   1.0782365601698438e+00   1.0425828500425098e+00   1.0386973519434035e+00   1.1104276788954073e+00   1.0860725721615729e+00   1.1576074696390091e+00   1.1576074696390077e+00   1.1309167752073550e+00   1.1556954973555822e+00   1.0897679838761394e+00   1.1261719415254383e+00   1.0472787034796334e+00   1.0774710715790263e+00   1.0157087527850197e+00   1.0332817297745955e+00   1.0015754546825919e+00   1.0066356081004195e+00   1.0071196785157590e+00   1.0048303457108643e+00   1.0303655116813228e+00   1.0277060174019870e+00   1.0658878744879665e+00   1.0678098568188106e+00   1.1045916311797712e+00   1.1122065003728250e+00   1.1315650712315222e+00   1.1425712274191273e+00   1.1225322507964588e+00   1.1395302020894529e+00   1.0743213946658519e+00   1.0901184942485560e+00   1.0414537489627123e+00   1.0421261176686150e+00   1.0982802076884539e+00   1.0764847571336282e+00   1.1403791831722487e+00   1.1389501123318357e+00   1.1133791597654352e+00   1.1328275134125145e+00   1.0714452304139113e+00   1.0996584192939591e+00   1.0320401651852045e+00   1.0504832214770032e+00   1.0035743274775391e+00   1.0093653865993315e+00   1.0110930551198296e+00   1.0000000000000000e+00   1.0000000000000000e+00   1.0000000000000000e+00   1.0148679691132734e+00   1.0000000000000000e+00   1.0690100257944821e+00   1.0551494694172034e+00   1.1193311695309709e+00   1.1120822745552588e+00   1.1381823197798853e+00   1.1384057804897654e+00   1.1118262408511392e+00   1.1191412957376392e+00   1.0570602987131212e+00   1.0679004722017629e+00   1.0363406527839261e+00   1.0306105752029842e+00   1.0884447492915734e+00   1.0597967313520102e+00   1.1556954973555795e+00   1.1309167752073517e+00   1.1794777370389491e+00   1.1794777370389475e+00   1.1532999286947869e+00   1.1800804627724386e+00   1.0958072383965736e+00   1.1324284659194599e+00   1.0389716301323533e+00   1.0678590273676443e+00   1.0085133678118068e+00   1.0195711091107758e+00   1.0182944983865050e+00   1.0143716497703879e+00   1.0613516302933799e+00   1.0535580457391649e+00   1.1166050676514401e+00   1.1130466452268275e+00   1.1596619145250897e+00   1.1614929821571154e+00   1.1682848705098079e+00   1.1747278434015014e+00   1.1315650783463700e+00   1.1425712133722654e+00   1.0665458287053751e+00   1.0804790192433980e+00   1.0348843320001540e+00   1.0331170661096483e+00   1.0759963221477418e+00   1.0513654797964243e+00   1.1323193710076949e+00   1.1110559820875956e+00   1.1454655533688416e+00   1.1467842986241732e+00   1.1080394411121328e+00   1.1330048890352717e+00   1.0492012601000398e+00   1.0761667534931088e+00   1.0000000000000000e+00   1.0100570388051415e+00   1.0000000000000000e+00   1.0000000000000000e+00   1.0000000000000000e+00   1.0000000000000000e+00   1.0204006574033224e+00   1.0005494137997091e+00   1.0870964383738211e+00   1.0706731827241109e+00   1.1298328426364752e+00   1.1200593193012733e+00   1.1277385770688342e+00   1.1255351747551841e+00   1.0866806261995128e+00   1.0918551899529327e+00   1.0367682310509347e+00   1.0438781125512857e+00   1.0201559188171638e+00   1.0156131999257778e+00   1.0578421525761170e+00   1.0328292294862904e+00   1.1261719415254368e+00   1.0897679838761372e+00   1.1800804627724388e+00   1.1532999286947878e+00   1.1873121289916042e+00   1.1873121289916060e+00   1.1418151765775899e+00   1.1683380951039735e+00   1.0715221318561068e+00   1.1046275910415040e+00   1.0229136694375447e+00   1.0390255975879643e+00   1.0365188765870723e+00   1.0300430898158848e+00   1.0950963618944536e+00   1.0827611547122313e+00   1.1540927343479987e+00   1.1460222902992616e+00   1.1794084459558947e+00   1.1764673491858033e+00   1.1596619157394024e+00   1.1614929828506195e+00   1.1045916205131801e+00   1.1122065036992261e+00   1.0443760734915939e+00   1.0535161010974521e+00   1.0193296638849318e+00   1.0174229297676387e+00   1.0480344349907564e+00   1.0270531214395475e+00   1.1043121955200603e+00   1.0740177125185719e+00   1.1422984015841213e+00   1.1228485268743751e+00   1.1277679959139277e+00   1.1356286452540898e+00   1.0722429609661457e+00   1.0976226063829631e+00   1.0000000000000000e+00   1.0201652503264371e+00   1.0000000000000000e+00   1.0000000000000000e+00   1.0000000000000000e+00   1.0115376953609561e+00   1.0286194522781811e+00   1.0065594967497669e+00   1.0896322779295140e+00   1.0736671222404686e+00   1.1103890793617488e+00   1.0992246247628281e+00   1.0918892862099749e+00   1.0868039366879843e+00   1.0534599150336770e+00   1.0545205519099565e+00   1.0189280627245232e+00   1.0223461645027594e+00   1.0081896745343064e+00   1.0057531107989861e+00   1.0300065908513423e+00   1.0140906614367287e+00   1.0774710715790252e+00   1.0472787034796316e+00   1.1324284659194643e+00   1.0958072383965767e+00   1.1683380951039783e+00   1.1418151765775966e+00   1.1639501692467851e+00   1.1639501692467875e+00   1.1104577250615080e+00   1.1374662958430941e+00   1.0419966210670790e+00   1.0650482820729108e+00   1.0538472326899304e+00   1.0461147700523430e+00   1.1163197135769296e+00   1.0998853907170825e+00   1.1570447531030412e+00   1.1457667092013559e+00   1.1540927373571872e+00   1.1460222939694811e+00   1.1166050704363919e+00   1.1130466498165530e+00   1.0658878781410208e+00   1.0678098600543611e+00   1.0238505187481661e+00   1.0281046366788311e+00   1.0078115309429390e+00   1.0068882979693821e+00   1.0238757863037089e+00   1.0109802876782839e+00   1.0625343657027362e+00   1.0378166173538079e+00   1.1026404522830473e+00   1.0749627337835823e+00   1.1151164188381291e+00   1.1021422059326920e+00   1.0898681929536940e+00   1.0991098546233047e+00   1.0048057792181038e+00   1.0368822854327726e+00   1.0000000000000000e+00   1.0000000000000000e+00   1.0000000000000000e+00   1.0506270066979870e+00   1.0289303657455056e+00   1.0029293397176056e+00   1.0658389213478947e+00   1.0519034852873550e+00   1.0665445299273095e+00   1.0538253714759085e+00   1.0470379220122086e+00   1.0392712721186297e+00   1.0240293581039339e+00   1.0214904206836875e+00   1.0073987401360101e+00   1.0079751949621665e+00   1.0020805377752804e+00   1.0014912741392323e+00   1.0105711991893738e+00