<?xml version="1.0"?>
<VTKFile type="UnstructuredGrid"  version="0.1"  >
<UnstructuredGrid>
<Piece  NumberOfPoints="961" NumberOfCells="1800">
<Points>
<DataArray  type="Float64"  NumberOfComponents="3"  format="ascii">0 0 0  0.03333333333333333 0 0  0.06666666666666667 0 0  0.1 0 0  0.1333333333333333 0 0  0.1666666666666667 0 0  0.2 0 0  0.2333333333333333 0 0  0.2666666666666667 0 0  0.3 0 0  0.3333333333333333 0 0  0.3666666666666666 0 0  0.4 0 0  0.4333333333333333 0 0  0.4666666666666667 0 0  0.4999999999999999 0 0  0.5333333333333333 0 0  0.5666666666666667 0 0  0.6 0 0  0.6333333333333333 0 0  0.6666666666666666 0 0  0.7 0 0  0.7333333333333333 0 0  0.7666666666666667 0 0  0.7999999999999999 0 0  0.8333333333333335 0 0  0.8666666666666666 0 0  0.9 0 0  0.9333333333333335 0 0  0.9666666666666667 0 0  1 0 0  0 0.03333333333333333 0  0.04024545845708503 0.04024545845708506 0  0.07449289679526078 0.037761506862506 0  0.1065651967999487 0.0342255292234944 0  0.1382265482673115 0.03111239136424604 0  0.1699770008295746 0.02868912096064991 0  0.2019264345524805 0.0270577902553586 0  0.2340393596214692 0.02630553998789391 0  0.2662099665812057 0.02650299674873453 0  0.2983097721903736 0.02768632448554998 0  0.3302377325518094 0.02987470498812826 0  0.3619647916208719 0.03313050288814146 0  0.3936056423399188 0.03764184536787267 0  0.4256475516353633 0.04377917187805116 0  0.4597020013681276 0.0516807332625818 0  0.4993356125653908 0.05753079425037107 0  0.5399911925833497 0.05188008733256442 0  0.5743807374058132 0.04371314062569094 0  0.6065092729480017 0.03751444202671399 0  0.638196602119005 0.03300691609586265 0  0.6699607315396644 0.02977405501647039 0  0.7019183367385736 0.02761814217911745 0  0.73403700004248 0.02647399168713772 0  0.7662126573873128 0.02631820697951759 0  0.798318235569963 0.0271086356884345 0  0.8302544563296252 0.02877007051441328 0  0.8619953955022464 0.03121176075714777 0  0.8936627016299772 0.03432103539434291 0  0.9257620539218813 0.03778777839284272 0  0.9599616101154946 0.04003838961972285 0  1 0.03333333333333333 0  0 0.06666666666666667 0  0.03776150686250596 0.07449289679526082 0  0.07278454156858467 0.07278454156858472 0  0.1056599672746454 0.06772556641859852 0  0.1376619664324657 0.06230060301079545 0  0.169556520051995 0.05767314952991787 0  0.2016649987834993 0.05439384346797363 0  0.2340205397646337 0.05282092582364573 0  0.2664689496987511 0.05318167664550614 0  0.2987861674429978 0.05553177627025598 0  0.3308288332639154 0.05978495377268488 0  0.3626375023005278 0.06581096049099663 0  0.3945240570444279 0.0734610122817996 0  0.4272117059255019 0.08233035785347716 0  0.4619182525535554 0.09090222689123487 0  0.4994868639228941 0.0951820578832599 0  0.5374688359010197 0.09118747798192152 0  0.5726232842809004 0.08247474218372623 0  0.6055697733805562 0.07344284411025137 0  0.637610737300734 0.06570966820696836 0  0.6695278282729369 0.05966278590451047 0  0.701650501184989 0.05543195077116437 0  0.7340163014804139 0.0531339093789519 0  0.7664738234843878 0.05283678016959949 0  0.798801337827385 0.05446103163421517 0  0.8308582831196423 0.05776130789555003 0  0.8626896427664618 0.06236675274173115 0  0.8946154039002843 0.06771139562968848 0  0.9273743786659127 0.07262562122562022 0  0.9622122214191307 0.07423794607291846 0  1 0.06666666666666667 0  0 0.1 0  0.03422552922349437 0.1065651967999487 0  0.06772556641859845 0.1056599672746455 0  0.1005159501645501 0.1005159501645502 0  0.133086379664211 0.0938189416309073 0  0.1659284656670357 0.08736501353645371 0  0.1993302490324355 0.08239461287240102 0  0.2332802289225238 0.0798468092650404 0  0.267436285021751 0.0803198202227956 0  0.3012939008722987 0.08386024152380916 0  0.3345452259012261 0.09001407757810845 0  0.3672039145712711 0.09809124820581352 0  0.399564904083746 0.1072511379497973 0  0.4321248070959177 0.1163240003019187 0  0.4654193893036632 0.1235131237196598 0  0.4996116641680455 0.1264828147502506 0  0.5339661731210154 0.1237615557536375 0  0.5675623638551938 0.1165961139826459 0  0.6004158918061074 0.1074072631482604 0  0.6330261283379031 0.0981114860034429 0  0.6658935009137629 0.08994141169276011 0  0.6993122332585728 0.08376143461706059 0  0.7332749496389307 0.0802608805943073 0  0.7674424704768126 0.07985923945005458 0  0.8013128332428391 0.0824478505775466 0  0.8345811227846646 0.08739437405889947 0  0.8672650938019296 0.09376082475448305 0  0.8996658049819144 0.1003341948527348 0  0.9322886042407403 0.1053845959927577 0  0.9656789645065872 0.106337298333025 0  1 0.1 0  0 0.1333333333333333 0  0.031112391364246 0.1382265482673115 0  0.06230060301079535 0.1376619664324658 0  0.09381894163090719 0.1330863796642111 0  0.1261285455878789 0.1261285455878791 0  0.1597341096685158 0.1184254233577773 0  0.1949841191681629 0.1117272178623958 0  0.2317672416566494 0.1079092601720982 0  0.2691668308376733 0.1084332884075292 0  0.305746787122916 0.1132877309691491 0  0.3407216044961172 0.1211300105785757 0  0.3740627488780997 0.1303548390391754 0  0.4061485628753531 0.1395639430779398 0  0.4374948373418318 0.147537893510814 0  0.4685833519560098 0.153107892383071 0  0.4997109154244583 0.1552174192097367 0  0.5309075460747353 0.1533358034289948 0  0.5621625782193835 0.147881347233604 0  0.5937290414334807 0.1398897419708629 0  0.6260717573342769 0.1305640654022608 0  0.65969997040979 0.1211846598393539 0  0.6949661240111642 0.1132283272708547 0  0.7317619777913026 0.1083676136061328 0  0.7691732515441772 0.1079144453870163 0  0.8057659047698176 0.1117301384103413 0  0.840756799053513 0.1183210608259455 0  0.8741204680740312 0.125879531611335 0  0.9062391750286191 0.1327349059961971 0  0.9376332471208852 0.1373103571165309 0  0.9687882391701679 0.1380046044473575 0  1 0.1333333333333333 0  0 0.1666666666666667 0  0.02868912096064986 0.1699770008295746 0  0.05767314952991779 0.1695565200519951 0  0.08736501353645357 0.1659284656670359 0  0.1184254233577772 0.159734109668516 0  0.1517992752595731 0.1517992752595733 0  0.1885870929950961 0.1436102043569787 0  0.2292746419617482 0.1380332767783089 0  0.2718738723488152 0.138539689633538 0  0.3121308922152548 0.1449605111070146 0  0.348520725830859 0.1539996999472472 0  0.381635831426195 0.1631286437227877 0  0.4125399157109858 0.1711007665828763 0  0.4421411121065131 0.1773025365125416 0  0.4710891041113915 0.1813097911291058 0  0.4998040190722087 0.1827768891602688 0  0.528548393916944 0.1815350162747458 0  0.5575760138632577 0.1776975481383709 0  0.5873000980535693 0.1715759738017352 0  0.6183833734544705 0.1635727141616376 0  0.6517733343215617 0.1542898818027453 0  0.6885730829947293 0.1450189333520671 0  0.7292706092711025 0.1384703972518768 0  0.7718793222353924 0.1380278093090296 0  0.8121462406125528 0.1434854333584417 0  0.8485478944463112 0.1514521048169653 0  0.8816789387222488 0.1592432005542408 0  0.9126056256918401 0.1654188770041988 0  0.9422386919736289 0.1691417167703679 0  0.9712299294276908 0.1697455436238002 0  1 0.1666666666666667 0  0 0.2 0  0.02705779025535858 0.2019264345524806 0  0.05439384346797359 0.2016649987834996 0  0.08239461287240095 0.1993302490324358 0  0.1117272178623957 0.1949841191681633 0  0.1436102043569784 0.1885870929950965 0  0.1803261372282726 0.180326137228273 0  0.2252350349696342 0.172602793296538 0  0.2760784706644464 0.1729704500631535 0  0.3201479673802894 0.1809752737909268 0  0.3565024681754174 0.1896793408878902 0  0.3882504378843057 0.1968892347180594 0  0.4175214991861855 0.2024343594229498 0  0.4454917786340039 0.2064243553368595 0  0.4728210284403916 0.2088934419178866 0  0.4998988510677781 0.2098045996907328 0  0.5269876578953187 0.2091227274277539 0  0.554347255833107 0.2068584784203784 0  0.582364971351143 0.203029488607612 0  0.6117091306097954 0.1975783532103942 0  0.6435996622157444 0.1903421500890169 0  0.6803206258844855 0.1813780961907575 0  0.7252337268757733 0.17294263178042 0  0.7760815201387723 0.172539947525436 0  0.820155146191336 0.1798448511350445 0  0.856514565301505 0.1878537585487355 0  0.8882698610579166 0.1942340948933223 0  0.9175521492118284 0.1986871666037901 0  0.9455389682797081 0.2011986621010276 0  0.9728913642794713 0.2016817644015182 0  1 0.2 0  0 0.2333333333333333 0  0.02630553998789388 0.2340393596214692 0  0.05282092582364568 0.234020539764634 0  0.07984680926504036 0.2332802289225243 0  0.1079092601720982 0.23176724165665 0  0.1380332767783088 0.2292746419617489 0  0.1726027932965377 0.225235034969635 0  0.2188297217734478 0.2188297217734484 0  0.2820461917246497 0.2181922618128746 0  0.3274657089283554 0.2244002517909874 0  0.361980772655271 0.2288226647394186 0  0.3920957929684697 0.2317963487353632 0  0.4201511722762671 0.2338834373803315 0  0.4471719151239143 0.2353343369423963 0  0.4736863397438911 0.2362393668707159 0  0.4999972990323779 0.2366187305336059 0  0.5263103895131775 0.2364699329052445 0  0.5528303975324607 0.2357865583914093 0  0.5798584850506977 0.2345450550587247 0  0.6079211922932849 0.2326592209910054 0  0.638043904678173 0.22988506018129 0  0.6726107601020894 0.2256140564850844 0  0.7188335272380973 0.2189548650398894 0  0.7820447269606757 0.2179552459456174 0  0.827460043175942 0.2239184796785433 0  0.8619721891659986 0.2281206777502095 0  0.8920855544000545 0.2308267484245762 0  0.9201407605432429 0.2325575295102961 0  0.9471632198487656 0.233526176513498 0  0.97368179303222 0.2337873426138507 0  1 0.2333333333333333 0  0 0.2666666666666667 0  0.02650299674873454 0.2662099665812059 0  0.05318167664550613 0.2664689496987516 0  0.0803198202227956 0.2674362850217517 0  0.1084332884075293 0.2691668308376743 0  0.138539689633538 0.2718738723488163 0  0.1729704500631533 0.2760784706644475 0  0.2181922618128742 0.2820461917246507 0  0.2810523976597598 0.2810523976597606 0  0.3270776185504265 0.2743952148494292 0  0.3615604057587898 0.2701247095736487 0  0.3916738333883181 0.267349988025295 0  0.4197922545361689 0.2654625155110891 0  0.4469324326323985 0.264218
[...]
<CellData  Scalars="q"> 
<DataArray  type="Float64"  Name="q"  format="ascii">1.0129774123883313e+00   1.0129774123883311e+00   1.0000000000000000e+00   1.0000000000000000e+00   1.0000000000000000e+00   1.0000000000000000e+00   1.0000000000000000e+00   1.0000000000000000e+00   1.0021853751363183e+00   1.0000000000000000e+00   1.0153202064614502e+00   1.0049068608345060e+00   1.0241636559028324e+00   1.0174073088644358e+00   1.0238875224253789e+00   1.0222224945637761e+00   1.0143163905827444e+00   1.0166021158669380e+00   1.0003472593408151e+00   1.0034166077986570e+00   1.0000000000000000e+00   1.0000000000000000e+00   1.0000000000000000e+00   1.0000000000000000e+00   1.0100059364237279e+00   1.0000000000000000e+00   1.0469386367422817e+00   1.0000000000000000e+00   1.0934909215403261e+00   1.0301459139162765e+00   1.0746730264159496e+00   1.0514422484964041e+00   1.0247940012691543e+00   1.0191313210768744e+00   1.0000000000000000e+00   1.0000000000000000e+00   1.0000000000000000e+00   1.0000000000000000e+00   1.0000000000000000e+00   1.0000000000000000e+00   1.0106377699849125e+00   1.0000000000000000e+00   1.0220333845753902e+00   1.0139356616107302e+00   1.0250517936857588e+00   1.0217760826623370e+00   1.0183828329196416e+00   1.0192925634937700e+00   1.0058371509918995e+00   1.0083070460901578e+00   1.0000000000000000e+00   1.0000000000000000e+00   1.0000000000000000e+00   1.0000000000000000e+00   1.0000000000000000e+00   1.0000000000000000e+00   1.0178504485335544e+00   1.0000000000000000e+00   1.0034486271070207e+00   1.0211301657121339e+00   1.0000000000000000e+00   1.0000000000000000e+00   1.0011134208908337e+00   1.0011134208908337e+00   1.0000000000000000e+00   1.0148667960772764e+00   1.0000000000000000e+00   1.0111163455129533e+00   1.0000000000000000e+00   1.0080367338665259e+00   1.0069694784174799e+00   1.0102691392773024e+00   1.0162796795369187e+00   1.0154850166555622e+00   1.0191246622828065e+00   1.0188734882055370e+00   1.0141153380830941e+00   1.0178700489380907e+00   1.0053370190946902e+00   1.0146093387324646e+00   1.0000000000000000e+00   1.0140067923033134e+00   1.0001252708537263e+00   1.0191279834036915e+00   1.0054996609369966e+00   1.0265352727736941e+00   1.0024596111700634e+00   1.0258888868002685e+00   1.0000000000000000e+00   1.0055423348021870e+00   1.0158346920126171e+00   1.0047633507529175e+00   1.0204797355725390e+00   1.0315809606804134e+00   1.0041327511506459e+00   1.0337128103287450e+00   1.0000000000000000e+00   1.0188910426862927e+00   1.0000000000000000e+00   1.0094409717703849e+00   1.0032680777803860e+00   1.0087869186066829e+00   1.0138588363944356e+00   1.0136790037997281e+00   1.0189747996877436e+00   1.0182277373880397e+00   1.0160169494518796e+00   1.0185632434763510e+00   1.0079907897730616e+00   1.0155098724932738e+00   1.0006223546217534e+00   1.0129909448398660e+00   1.0000000000000000e+00   1.0133990676106235e+00   1.0000000000000000e+00   1.0135578850437950e+00   1.0004379754927424e+00   1.0052511358187197e+00   1.0178504490856051e+00   1.0000000000000000e+00   1.0000000000000000e+00   1.0000000000000000e+00   1.0148667960772761e+00   1.0000000000000000e+00   1.0503537005694481e+00   1.0503537005694481e+00   1.0502888274022655e+00   1.0644724112776882e+00   1.0386063947541671e+00   1.0576706187556986e+00   1.0274897854086855e+00   1.0410793380055530e+00   1.0214529190234591e+00   1.0270815039863059e+00   1.0210318344264855e+00   1.0220746946611587e+00   1.0261940100359657e+00   1.0284469366988669e+00   1.0370929857363964e+00   1.0446554891268716e+00   1.0524900878489762e+00   1.0656647482494328e+00   1.0669922980247921e+00   1.0828484339276845e+00   1.0689852977715051e+00   1.0846808312164691e+00   1.0471675462615841e+00   1.0611680349525627e+00   1.0129358998074276e+00   1.0222270335167596e+00   1.0197078700193378e+00   1.0112359970697000e+00   1.0669289886612314e+00   1.0560852728670389e+00   1.0837401481628892e+00   1.0926178929710877e+00   1.0684431406349357e+00   1.0925965314535857e+00   1.0467886584422885e+00   1.0725267065732904e+00   1.0302810102965934e+00   1.0478865178028827e+00   1.0219099556912439e+00   1.0294207326767255e+00   1.0205826828914042e+00   1.0219930554561720e+00   1.0245588182924195e+00   1.0262216719749020e+00   1.0324204245034980e+00   1.0388178580578940e+00   1.0417326094296131e+00   1.0533385266202822e+00   1.0460244325755386e+00   1.0602872588255274e+00   1.0347020823926694e+00   1.0487935193136979e+00   1.0000000000000000e+00   1.0135578856064380e+00   1.0000000000000000e+00   1.0000000000000000e+00   1.0000000000000000e+00   1.0000000000000000e+00   1.0111163455129530e+00   1.0000000000000000e+00   1.0644724112776882e+00   1.0502888274022653e+00   1.0892304986787154e+00   1.0892304986787151e+00   1.0832993312940218e+00   1.1004174584858073e+00   1.0573762014192190e+00   1.0787482299272795e+00   1.0330825293397075e+00   1.0461287537163915e+00   1.0286132523250426e+00   1.0299381283139364e+00   1.0481457151107629e+00   1.0452809809948640e+00   1.0797829897082329e+00   1.0809691787208229e+00   1.1066199366313754e+00   1.1131456770958081e+00   1.1142081654335956e+00   1.1235386278519000e+00   1.0938781743202355e+00   1.1048905885342517e+00   1.0501317401666168e+00   1.0627632208601694e+00   1.0117847449171311e+00   1.0193692585147558e+00   1.0192098317001166e+00   1.0088933761743715e+00   1.0668652261439830e+00   1.0457221516428410e+00   1.1093444240823884e+00   1.0969281442962298e+00   1.1215204715727722e+00   1.1288804980542395e+00   1.1024453578087814e+00   1.1260341638156688e+00   1.0671704328119815e+00   1.0936953358996551e+00   1.0365149737646551e+00   1.0528483600689049e+00   1.0272561071678346e+00   1.0303880549506523e+00   1.0418349162664686e+00   1.0398058204848133e+00   1.0666815752334950e+00   1.0683904257284835e+00   1.0837580340727921e+00   1.0912392807510451e+00   1.0785803597612902e+00   1.0901551867817083e+00   1.0460244330256923e+00   1.0602872592872594e+00   1.0000000000000000e+00   1.0133990681382798e+00   1.0000000000000000e+00   1.0000000000000000e+00   1.0000000000000000e+00   1.0021853751363186e+00   1.0080367338665255e+00   1.0000000000000000e+00   1.0576706187556981e+00   1.0386063947541666e+00   1.1004174584858066e+00   1.0832993312940213e+00   1.1128363656981120e+00   1.1128363656981117e+00   1.0902929878860443e+00   1.1059089752213098e+00   1.0514460414838758e+00   1.0678605010994391e+00   1.0389950411583120e+00   1.0396535582510458e+00   1.0702095767138320e+00   1.0614368078091172e+00   1.1111023413279730e+00   1.1060005387235348e+00   1.1309798859270175e+00   1.1299275799019499e+00   1.1193871656860981e+00   1.1211350831607128e+00   1.0825696020472138e+00   1.0874615606812390e+00   1.0371567532219839e+00   1.0447180712370443e+00   1.0066863065197351e+00   1.0111478915459176e+00   1.0103317250444270e+00   1.0033095983448792e+00   1.0475350025040313e+00   1.0269203211946207e+00   1.0976036650269390e+00   1.0713352181342379e+00   1.1347879485254500e+00   1.1164679680672940e+00   1.1373886586365447e+00   1.1386852194424142e+00   1.1056159688223604e+00   1.1243039828223742e+00   1.0580321063436700e+00   1.0779001983094396e+00   1.0369551144179239e+00   1.0407797330988879e+00   1.0603219170322127e+00   1.0536948801042545e+00   1.0931976912735615e+00   1.0903192293605182e+00   1.1041039279208378e+00   1.1068103418748441e+00   1.0837580345006044e+00   1.0912392813593381e+00   1.0417326100704560e+00   1.0533385272460887e+00   1.0006223549484172e+00   1.0129909452433186e+00   1.0000000000000000e+00   1.0000000000000000e+00   1.0049068608345058e+00   1.0153202064614499e+00   1.0102691392773022e+00   1.0069694784174794e+00   1.0410793380055527e+00   1.0274897854086851e+00   1.0787482299272788e+00   1.0573762014192187e+00   1.1059089752213094e+00   1.0902929878860439e+00   1.1093610799953746e+00   1.1093610799953746e+00   1.0650951586877868e+00   1.0774690468003763e+00   1.0400772347200520e+00   1.0362383322984727e+00   1.0754856422769410e+00   1.0604889768394266e+00   1.1107519782105415e+00   1.0975921809901974e+00   1.1116708520405598e+00   1.1032944676043503e+00   1.0869628008253747e+00   1.0815144317358922e+00   1.0518981061730517e+00   1.0507371072064118e+00   1.0204731635492388e+00   1.0229004521197840e+00   1.0025376173950120e+00   1.0048753745942274e+00   1.0037946305724623e+00   1.0004889190365525e+00   1.0245829533317834e+00   1.0112776628493054e+00   1.0594709299431055e+00   1.0359456314429112e+00   1.0982226519912792e+00   1.0697521660206564e+00   1.1237591355205796e+00   1.1034052197794344e+00   1.1243208966122860e+00   1.1228963787219837e+00   1.0729244957213722e+00   1.0872193901213720e+00   1.0373689808982873e+00   1.0372278976441636e+00   1.0655929455937809e+00   1.0530348920670014e+00   1.0957086242178511e+00   1.0861930651447271e+00   1.0931976908429732e+00   1.0903192310770835e+00   1.0666815762017543e+00   1.0683904257085979e+00   1.0324204250277682e+00   1.0388178588069874e+00   1.0079907898848974e+00   1.0155098727057994e+00   1.0058371507710513e+00   1.0083070459433381e+00   1.0174073088644358e+00   1.0241636559028331e+00   1.0154850166555620e+00   1.0162796795369191e+00   1.0270815039863057e+00   1.0214529190234596e+00   1.0461287537163919e+00   1.0330825293397081e+00   1.0678605010994395e+00   1.0514460414838769e+00   1.0774690468003776e+00   1.0650951586877886e+00   1.0385339925518917e+00   1.0385339925518928e+00   1.0137193582819086e+00   1.0069646701239501e+00   1.0506850474518097e+00   1.0195846481433475e+00   1.0695469697898277e+00   1.0536134180869809e+00   1.0620770786621552e+00   1.0507505061557694e+00   1.0409721132156791e+00   1.0337650547517583e+00   1.0211146056417864e+00   1.0176798182805946e+00   1.0075854845152687e+00   1.0069878723121088e+00   1.0009257015706410e+00   1.0015959648651698e+00   1.0007500324726191e+00   1.0001209361786263e+00   1.0075797744979584e+00   1.0024643107522690e+00   1.0224625234897191e+00   1.0102522177408861e+00   1.0445033215679667e+00   1.0248973061151148e+00   1.0690907609599885e+00   1.0458849822996399e+00   1.0813534765394284e+00   1.0630345560835708e+00   1.0428066049916302e+00   1.0401507385352871e+00   1.0127306951209518e+00   1.0078248984768907e+00   1.0459059782649689e+00   1.0176291901011369e+00   1.0655929372750286e+00   1.0530349077097492e+00   1.0603219189322086e+00   1.0536948649089495e+00   1.0418349166285945e+00   1.0398058225414033e+00   1.0245588188772237e+00   1.0262216727969973e+00   1.0160169495640006e+00   1.0185632438284014e+00   1.0183828327719362e+00   1.0192925635391077e+00   1.0222224945637772e+00   1.0238875224253796e+00   1.0188734882055381e+00   1.0191246622828078e+00   1.0220746946611601e+00   1.0210318344264870e+00   1.0299381283139382e+00   1.0286132523250444e+00   1.0396535582510489e+00   1.0389950411583153e+00   1.0362383322984761e+00   1.0400772347200558e+00   1.0069646701239510e+00   1.0137193582819108e+00   1.0030442423277015e+00   1.0030442423277017e+00   1.0109342487813282e+00   1.0072626429988452e+00   1.0312438762482226e+00   1.0319857968656954e+00   1.0265156733380725e+00   1.0312575383774734e+00   1.0139800618972994e+00   1.0179395316386097e+00   1.0052258007289712e+00   1.0074084841581625e+00   1.0013692043710998e+00   1.0018938700085138e+00   1.0003958477010655e+00   1.0002992283640408e+00   1.0004296264992043e+00   1.0004474104773364e+00   1.0018970099006459e+00   1.0018580646260893e+00   1.0070453996334274e+00   1.0062901380445759e+00   1.0171414340326672e+00   1.0156589218057568e+00   1.0299402243941602e+00   1.0287914079954161e+00   1.0309146450662472e+00   1.0340725840286085e+00   1.0063780212182922e+00   1.0119618227828708e+00   1.0031906620381641e+00   1.0028993104856538e+00   1.0127307483498103e+00   1.0078249181933949e+00   1.0373689597132274e+00   1.0372278780641759e+00   1.0369551098023273e+00   1.0407797600174651e+00   1.0272561094522952e+00   1.0303880586289338e+00   1.0205826837655541e+00   1.0219930572559410e+00   1.0189748002591181e+00   1.0182277383474836e+00   1.0250517939272223e+00   1.0217760831771903e+00   1.0166021158669389e+00   1.0143163905827448e+00   1.0178700489380925e+00   1.0141153380830956e+00   1.0284469366988689e+00   1.0261940100359677e+00   1.0452809809948671e+00   1.0481457151107658e+00   1.0614368078091203e+00   1.0702095767138355e+00   1.0604889768394297e+00   1.0754856422769441e+00   1.0195846481433470e+00   1.0506850474518095e+00   1.0072626429988443e+00   1.0109342487813260e+00   1.0446368015961538e+00   1.0446368015961527e+00   1.0714816892665178e+00   1.0918449866772304e+00   1.0536595478549060e+00   1.0805979964777761e+00   1.0303360858871524e+00   1.0537039838394362e+00   1.0131956368419042e+00   1.0282457667922360e+00   1.0033407161947872e+00   1.0100346378776717e+00   1.0000305924640500e+00   1.0011098519850494e+00   1.0019955488175589e+00   1.0011653066779227e+00   1.0091531412958550e+00   1.0097359179237513e+00   1.0223145047673250e+00   1.0265434431636453e+00   1.0408662121887140e+00   1.0500072332853334e+00   1.0594401373703763e+00   1.0737013950180669e+00   1.0615166564003453e+00   1.0803348238287773e+00   1.0216708983146565e+00   1.0558213827957414e+00   1.0063780335656030e+00   1.0119618747891095e+00   1.0428066413017185e+00   1.0401507702438080e+00   1.0729245139939556e+00   1.0872194884261435e+00   1.0580321351504036e+00   1.0779002463821052e+00   1.0365149761412094e+00   1.0528483601793874e+00   1.0219099577462905e+00   1.0294207365386669e+00   1.0138588374740900e+00   1.0136790047972690e+00   1.0220333852010408e+00   1.0139356623821061e+00   1.0034166077986586e+00   1.0003472593408163e+00   1.0146093387324671e+00   1.0053370190946929e+00   1.0446554891268738e+00   1.0370929857363991e+00   1.0809691787208275e+00   1.0797829897082365e+00   1.1060005387235401e+00   1.1111023413279797e+00   1.0975921809901994e+00   1.1107519782105451e+00   1.0536134180869776e+00   1.0695469697898257e+00   1.0319857968656914e+00   1.0312438762482181e+00   1.0918449866772293e+00   1.0714816892665160e+00   1.1397110363798402e+00   1.1397110363798404e+00   1.1219284656523902e+00   1.1455989447516801e+00   1.0845434437174024e+00   1.1186844293240512e+00   1.0448656765071846e+00   1.0735374350453504e+00   1.0149433752104562e+00   1.0316537073608256e+00   1.0014629148744598e+00   1.0062437492895915e+00   1.0067363968254173e+00   1.0044991945753310e+00   1.0288637393943350e+00   1.0263017288416867e+00   1.0624320224999328e+00   1.0643969271845726e+00   1.0982832296711682e+00   1.1060586972569526e+00   1.1215486033174022e+00   1.1335202971721614e+00   1.1102783348302752e+00   1.1279507229185413e+00   1.0615166828973601e+00   1.0803348139569320e+00   1.0309146316454090e+00   1.0340725735694691e+00   1.0813535694448204e+00   1.0630345641401895e+00   1.1243210729843178e+00   1.1228965621252467e+00   1.1056160032996944e+00   1.1243039711134468e+00   1.0671704385359679e+00   1.0936953428625589e+00   1.0302810130786293e+00   1.0478865211350779e+00   1.0032680786234376e+00   1.0087869193443506e+00   1.0106377705886589e+00   1.0000000000000000e+00   1.0000000000000000e+00   1.0000000000000000e+00   1.0140067923033174e+00   1.0000000000000000e+00   1.0656647482494352e+00   1.0524900878489798e+00   1.1131456770958128e+00   1.1066199366313785e+00   1.1299275799019570e+00   1.1309798859270244e+00   1.1032944676043521e+00   1.1116708520405640e+00   1.0507505061557658e+00   1.0620770786621527e+00   1.0312575383774705e+00   1.0265156733380687e+00   1.0805979964777768e+00   1.0536595478549056e+00   1.1455989447516803e+00   1.1219284656523911e+00   1.1693227964597084e+00   1.1693227964597082e+00   1.1450432019649510e+00   1.1702356658069659e+00   1.0908818702873129e+00   1.1255494952868978e+00   1.0367915615925851e+00   1.0640531162620215e+00   1.0077751142858038e+00   1.0180886646235423e+00   1.0170636515159277e+00   1.0131269984367237e+00   1.0580992614562719e+00   1.0504294173439830e+00   1.1106550347214166e+00   1.1071297641398650e+00   1.1510641761542058e+00   1.1531119130628702e+00   1.1580401866202856e+00   1.1650106173734227e+00   1.1215486065293676e+00   1.1335202968937645e+00   1.0594401227743773e+00   1.0737013994918922e+00   1.0299402434821168e+00   1.0287914035949397e+00   1.0690908056014732e+00   1.0458850009665230e+00   1.1237591313698985e+00   1.1034052642584631e+00   1.1373886185868096e+00   1.1386851760773062e+00   1.1024453609184002e+00   1.1260341762568775e+00   1.0467886589901476e+00   1.0725267059314318e+00   1.0000000000000000e+00   1.0094409726163174e+00   1.0000000000000000e+00   1.0000000000000000e+00   1.0000000000000000e+00   1.0000000000000000e+00   1.0191279834036977e+00   1.0001252708537316e+00   1.0828484339276894e+00   1.0669922980247992e+00   1.1235386278519042e+00   1.1142081654336000e+00   1.1211350831607192e+00   1.1193871656861041e+00   1.0815144317358936e+00   1.0869628008253782e+00   1.0337650547517550e+00   1.0409721132156768e+00   1.0179395316386066e+00   1.0139800618972958e+00   1.0537039838394351e+00   1.0303360858871498e+00   1.1186844293240514e+00   1.0845434437174015e+00   1.1702356658069628e+00   1.1450432019649477e+00   1.1771911552951857e+00   1.1771911552951830e+00   1.1338866785174633e+00   1.1588355111869937e+00   1.0665986167569272e+00   1.0978398065963497e+00   1.0204826220838437e+00   1.0354659047469794e+00   1.0333342161039509e+00   1.0267320127377255e+00   1.0892158149511149e+00   1.0766745943773857e+00   1.1457081990873497e+00   1.1373663767524433e+00   1.1700613393124548e+00   1.1670234659938412e+00   1.1510641771010821e+00   1.1531119136167320e+00   1.0982832302902494e+00   1.1060586989761052e+00   1.0408662152828509e+00   1.0500072344404012e+00   1.0171414370809591e+00   1.0156589238219458e+00   1.0445033224672295e+00   1.0248973066075762e+00   1.0982226588566282e+00   1.0697521739981586e+00   1.1347879582845914e+00   1.1164679680881053e+00   1.1215204800155938e+00   1.1288805073556700e+00   1.0684431381942843e+00   1.0925965286386459e+00   1.0000000000000000e+00   1.0188910419153352e+00   1.0000000000000000e+00   1.0000000000000000e+00   1.0000000000000000e+00   1.0100059364237306e+00   1.0265352727736996e+00   1.0054996609370017e+00   1.0846808312164764e+00   1.0689852977715117e+00   1.1048905885342581e+00   1.0938781743202424e+00   1.0874615606812441e+00   1.0825696020472193e+00   1.0507371072064133e+00   1.0518981061730546e+00   1.0176798182805920e+00   1.0211146056417850e+00   1.0074084841581596e+00   1.0052258007289687e+00   1.0282457667922333e+00   1.0131956368419019e+00   1.0735374350453477e+00   1.0448656765071818e+00   1.1255494952868930e+00   1.0908818702873095e+00   1.1588355111869924e+00   1.1338866785174599e+00   1.1526960761981906e+00   1.1526960761981917e+00   1.0988242481832586e+00   1.1235098149235720e+00   1.0356712575643163e+00   1.0549954395612811e+00   1.0477742432731856e+00   1.0384370086654924e+00   1.1070859350221178e+00   1.0900701667421662e+00   1.1472839460463127e+00   1.1350703099376935e+00   1.1457081994984901e+00   1.1373663770164311e+00   1.1106550356230882e+00   1.1071297648961371e+00   1.0624320239551017e+00   1.0643969281976531e+00   1.0223145061570442e+00   1.0265434443114965e+00   1.0070454004584464e+00   1.0062901387195875e+00   1.0224625259198490e+00   1.0102522184215175e+00   1.0594709328847678e+00   1.0359456337432509e+00   1.0976036645893181e+00   1.0713352183451732e+00   1.1093444217062751e+00   1.0969281418636663e+00   1.0837401429447131e+00   1.0926178880026702e+00   1.0041327496849020e+00   1.0337128061498526e+00   1.0000000000000000e+00   1.0000000000000000e+00   1.0000000000000000e+00   1.0469386367422862e+00   1.0258888868002758e+00   1.0024596111700714e+00   1.0611680349525681e+00   1.0471675462615904e+00   1.0627632208601758e+00   1.0501317401666226e+00   1.0447180712370483e+00   1.0371567532219885e+00   1.0229004521197846e+00   1.0204731635492403e+00   1.0069878723121080e+00   1.0075854845152685e+00   1.0018938700085127e+00   1.0013692043710989e+00   1.0100346378776712e+00