<?xml version="1.0"?>
<VTKFile type="UnstructuredGrid"  version="0.1"  >
<UnstructuredGrid>
<Piece  NumberOfPoints="961" NumberOfCells="1800">
<Points>
<DataArray  type="Float64"  NumberOfComponents="3"  format="ascii">0 0 0  0.03333333333333333 0 0  0.06666666666666667 0 0  0.1 0 0  0.1333333333333333 0 0  0.1666666666666667 0 0  0.2 0 0  0.2333333333333333 0 0  0.2666666666666667 0 0  0.3 0 0  0.3333333333333333 0 0  0.3666666666666666 0 0  0.4 0 0  0.4333333333333333 0 0  0.4666666666666667 0 0  0.5 0 0  0.5333333333333333 0 0  0.5666666666666667 0 0  0.6 0 0  0.6333333333333333 0 0  0.6666666666666666 0 0  0.7 0 0  0.7333333333333333 0 0  0.7666666666666668 0 0  0.8 0 0  0.8333333333333334 0 0  0.8666666666666668 0 0  0.9 0 0  0.9333333333333333 0 0  0.9666666666666667 0 0  1 0 0  0 0.03333333333333333 0  0.04073624526079047 0.04073624526079049 0  0.07478026995403701 0.0379508222487092 0  0.1067053405300013 0.03426243545728232 0  0.1382894140887227 0.03107150124947132 0  0.1700016328041086 0.02860243367374142 0  0.201934903853757 0.0269434874264884 0  0.2340439657465748 0.02617938933402118 0  0.2662147930831293 0.02638205040017244 0  0.2983105987715129 0.02758892990303074 0  0.3302227602219178 0.02982143404470977 0  0.3619137901763553 0.0331510808802294 0  0.3934846634904404 0.03779556682836869 0  0.425400444468856 0.04421174078632415 0  0.4592900154161491 0.05276427187481917 0  0.4991989942035751 0.05964721181304494 0  0.5404484789418994 0.05307195236848513 0  0.5746576580370251 0.04417221637023986 0  0.6066454624990276 0.03767642426269587 0  0.6382578008022549 0.03303080446412165 0  0.6699846309302189 0.02972217706434566 0  0.7019265086666979 0.0275210915831646 0  0.7340415535776679 0.02635268162113787 0  0.7662176301367861 0.02619108225327271 0  0.7983194702094318 0.02699253961395795 0  0.8302403724177407 0.02868025070642179 0  0.8619463263813365 0.03116515554464484 0  0.8935462308918121 0.0343457165956895 0  0.9255268263157028 0.03794314372355399 0  0.9595869519621349 0.0404130479871358 0  1 0.03333333333333333 0  0 0.06666666666666667 0  0.03795082224870917 0.07478026995403705 0  0.07295762312877924 0.07295762312877929 0  0.1057582750637212 0.06774752825802625 0  0.1376976755311572 0.06220546020855686 0  0.1695566770784067 0.05749218335120553 0  0.2016556695691605 0.05415416830832765 0  0.2340213829942242 0.05255335294933974 0  0.2664874392902528 0.05292374877219651 0  0.2988137449417958 0.05532287138913084 0  0.3308460047968026 0.05966296977496431 0  0.3626196626115481 0.06581924942478323 0  0.3944463328965894 0.07366463519129578 0  0.4270617058138044 0.08283474092340651 0  0.4617397488096036 0.09182987523687695 0  0.4994472995770963 0.09644620403848075 0  0.5376362048706315 0.09216620693899868 0  0.572785940083284 0.08300916829227004 0  0.6056631939238812 0.07366046094897941 0  0.6376441325841987 0.06572444335812298 0  0.6695269110710923 0.05954354693196155 0  0.7016407315486489 0.05522358807399488 0  0.7340170779233838 0.05287516538576619 0  0.7664925539145432 0.05256741355634358 0  0.7988295539735871 0.05421807691726654 0  0.8308767852137608 0.05757455989775144 0  0.8626744908407785 0.06226155419447967 0  0.8945431653258578 0.06771506930465303 0  0.9272357426324618 0.0727642568787127 0  0.9620568562041067 0.07447317322836638 0  1 0.06666666666666667 0  0 0.1 0  0.0342624354572823 0.1067053405300014 0  0.06774752825802621 0.1057582750637212 0  0.1004951690143636 0.1004951690143637 0  0.1330254007950697 0.09366317229283508 0  0.1658493399730101 0.08708244106875054 0  0.1992658460375375 0.08200906303121915 0  0.2332639774064395 0.07940428630188691 0  0.2674835079657223 0.07989033506118554 0  0.301385353339044 0.08351462838639805 0  0.3346468183095502 0.08980432194535182 0  0.367283735282661 0.09805574925319212 0  0.3996014730578792 0.1074254468786158 0  0.4321138951569001 0.1167394187482796 0  0.4653836081483161 0.1241656449115311 0  0.4995990873788488 0.1272638708935487 0  0.533992455548685 0.1244367543288875 0  0.5675776345600403 0.117034731005385 0  0.6003913745049472 0.1075977740403361 0  0.6329632152391661 0.09808543748031727 0  0.6658134537215511 0.0897359065625566 0  0.6992474688940284 0.0834163136179512 0  0.7332586760016163 0.07982983275963618 0  0.7674899517816055 0.07941446080908388 0  0.8014049054399396 0.08205795293025796 0  0.8346839415304387 0.0871036084183633 0  0.8673472267386791 0.09359160488591176 0  0.8997065807639145 0.1002934182090725 0  0.9322849299813627 0.1054568340329274 0  0.9656542830828578 0.1064537687542469 0  1 0.1 0  0 0.1333333333333333 0  0.03107150124947131 0.1382894140887228 0  0.06220546020855683 0.1376976755311573 0  0.09366317229283502 0.1330254007950698 0  0.1259230330260311 0.1259230330260312 0  0.1595121096232139 0.1180449084608745 0  0.1948050095420727 0.1111691819374269 0  0.2317081704242623 0.1072302197830293 0  0.2692733881406974 0.1077703517357319 0  0.3059616862200973 0.1127736277681041 0  0.3409680120927176 0.1208226993520776 0  0.3742848373765407 0.1302624857361591 0  0.4063156705157844 0.1396748648033153 0  0.4375967955181017 0.1478299685509567 0  0.4686258764288627 0.153539420315161 0  0.4997076982655488 0.155710154216353 0  0.5308628191744377 0.1537798564529962 0  0.5620645552639546 0.1481912842247628 0  0.5935715416931328 0.1400180921622922 0  0.6258653795534745 0.1304851798823988 0  0.6594776332289825 0.1208845851260039 0  0.6947869570743345 0.1127146050382448 0  0.7317029937374163 0.1077013254355969 0  0.7692800048669458 0.1072337112117423 0  0.8059811608329186 0.1111668448125194 0  0.8410038720211459 0.1179286428987318 0  0.8743437821645609 0.1256562157946813 0  0.9064083935921383 0.1326527720753675 0  0.9377384448394809 0.1373255085067555 0  0.9688348439997297 0.1380536733192975 0  1 0.1333333333333333 0  0 0.1666666666666667 0  0.02860243367374142 0.1700016328041087 0  0.05749218335120555 0.1695566770784069 0  0.08708244106875053 0.1658493399730103 0  0.1180449084608745 0.1595121096232139 0  0.1513546322936234 0.1513546322936234 0  0.1881791390952496 0.1428625983242848 0  0.2291052507974748 0.1370038016642413 0  0.2721198038752067 0.1375325449984905 0  0.3125804032392461 0.144253966277856 0  0.3489862136790311 0.1536121640767205 0  0.3820284850731547 0.1629915457017198 0  0.4128307945332496 0.1711476827575692 0  0.4423278507125376 0.1774823906793956 0  0.4711791021088608 0.1815764508808516 0  0.4998052062505547 0.1830778589899207 0  0.5284620473695485 0.1818106470731242 0  0.5573953152272703 0.1778929910452891 0  0.5870179761848781 0.1716423430759553 0  0.6180034534943024 0.1634556641612585 0  0.6513292897261472 0.1539174430240923 0  0.6881655978616944 0.1443145862569489 0  0.7291014855660007 0.1374540391665825 0  0.7721253084086943 0.1370010838168649 0  0.81259561898187 0.1427297259001645 0  0.8490131363313365 0.1509868589524328 0  0.8820713537958225 0.1589961257996795 0  0.9128963895480913 0.1653160574336646 0  0.9424254389504286 0.1691232142893371 0  0.9713197487742008 0.1697596273757071 0  1 0.1666666666666667 0  0 0.2 0  0.02694348742648841 0.201934903853757 0  0.05415416830832766 0.2016556695691606 0  0.08200906303121915 0.1992658460375377 0  0.1111691819374269 0.1948050095420728 0  0.1428625983242848 0.1881791390952498 0  0.1794617344750784 0.1794617344750784 0  0.2247189743528842 0.1710230515546294 0  0.2767287444884705 0.1714322123189562 0  0.3210412088758767 0.1801262159214541 0  0.3572596088915725 0.1892883102266446 0  0.3888156178381961 0.1967487829512725 0  0.4179136567322648 0.2024373133713054 0  0.4457373680452183 0.2065149415570025 0  0.4729402702086244 0.2090354874667164 0  0.499902800045223 0.2099664836737035 0  0.5268766364279398 0.2092725414557307 0  0.5541104641041963 0.2069642207658776 0  0.581982011218422 0.2030548826543485 0  0.6111533620541162 0.1974677162842052 0  0.6428538961582521 0.1899855751029712 0  0.6794574894568954 0.1805497904823077 0  0.7247182227078609 0.1713766627828835 0  0.7767316012847048 0.1709795586125168 0  0.8210475119405737 0.1789524710020987 0  0.8572702642075922 0.1874043770441669 0  0.8888331506083158 0.194018838038381 0  0.9179420448437816 0.1985950941886805 0  0.9457819219597318 0.2011704458884153 0  0.9730074599021155 0.2016805297400721 0  1 0.2 0  0 0.2333333333333333 0  0.02617938933402119 0.2340439657465747 0  0.05255335294933974 0.2340213829942242 0  0.07940428630188689 0.2332639774064396 0  0.1072302197830293 0.2317081704242624 0  0.1370038016642413 0.2291052507974749 0  0.1710230515546294 0.2247189743528843 0  0.2169628957077857 0.2169628957077857 0  0.2840528642623311 0.2162114773032471 0  0.3290279812721106 0.2237751528014077 0  0.363010321408179 0.2286025075485348 0  0.3927801281710059 0.2317189373104855 0  0.420600259219552 0.2338705475579724 0  0.4474462522177102 0.2353564742900991 0  0.4738190629067604 0.2362813801009934 0  0.5000034903363582 0.2366695005196126 0  0.5261899714087791 0.2365191435353265 0  0.552568048901685 0.235823658280794 0  0.579420621092291 0.2345568190853591 0  0.607246178464119 0.2326212569509361 0  0.6370177408514774 0.2297318873070562 0  0.6710334757012014 0.2251122536095589 0  0.7169679031089027 0.2171013417482429 0  0.7840506765124254 0.2159491403659956 0  0.829020371355192 0.2232684078947454 0  0.8629989024529334 0.2278746958136512 0  0.8927662852885137 0.2307199967627913 0  0.9205855377947537 0.2325100489487862 0  0.9474325857323999 0.2335074464183311 0  0.973808917425583 0.233782369992428 0  1 0.2333333333333334 0  0 0.2666666666666667 0  0.02638205040017246 0.2662147930831294 0  0.05292374877219653 0.2664874392902528 0  0.07989033506118559 0.2674835079657225 0  0.1077703517357319 0.2692733881406974 0  0.1375325449984905 0.2721198038752067 0  0.1714322123189562 0.2767287444884705 0  0.2162114773032471 0.2840528642623311 0  0.2829075299643474 0.2829075299643472 0  0.3286466865814182 0.2748980386367699 0  0.3625809333887093 0.2702786571776087 0  0.3923453597462989 0.2673885599663812 0  0.4202295853524434 0.2654511668468392 0  0.4471984161580246 0.26418
[...]
<CellData  Scalars="q"> 
<DataArray  type="Float64"  Name="q"  format="ascii">1.0145715422658752e+00   1.0145715422658752e+00   1.0000000000000000e+00   1.0000000000000000e+00   1.0000000000000000e+00   1.0000000000000000e+00   1.0000000000000000e+00   1.0000000000000000e+00   1.0023401516293653e+00   1.0000000000000000e+00   1.0160136763148166e+00   1.0052248885397124e+00   1.0252167737080211e+00   1.0182501902308072e+00   1.0249146635292030e+00   1.0232594475790862e+00   1.0149319658862299e+00   1.0173884381494327e+00   1.0003959516647649e+00   1.0036531736889573e+00   1.0000000000000000e+00   1.0000000000000000e+00   1.0000000000000000e+00   1.0000000000000000e+00   1.0114864225050111e+00   1.0000000000000000e+00   1.0505125874793846e+00   1.0000000000000000e+00   1.1046901525251189e+00   1.0312584047301199e+00   1.0831557894799686e+00   1.0569544719901687e+00   1.0276217795492315e+00   1.0204345388024088e+00   1.0000000000000000e+00   1.0000000000000000e+00   1.0000000000000000e+00   1.0000000000000000e+00   1.0000000000000000e+00   1.0000000000000000e+00   1.0110790774153464e+00   1.0000000000000000e+00   1.0229700059348987e+00   1.0145900510524883e+00   1.0261479233084865e+00   1.0227906623087957e+00   1.0192263015650675e+00   1.0202305062904968e+00   1.0061765689428748e+00   1.0088036999012506e+00   1.0000000000000000e+00   1.0000000000000000e+00   1.0000000000000000e+00   1.0000000000000000e+00   1.0000000000000000e+00   1.0000000000000000e+00   1.0193295301125367e+00   1.0000000000000000e+00   1.0038849930966161e+00   1.0232727683815914e+00   1.0000000000000000e+00   1.0000000000000000e+00   1.0014004559478218e+00   1.0014004559478218e+00   1.0000000000000000e+00   1.0163389131860268e+00   1.0000000000000000e+00   1.0117999076159199e+00   1.0000000000000000e+00   1.0085119971644991e+00   1.0074630689420119e+00   1.0109050286849952e+00   1.0172220194413903e+00   1.0164434529516904e+00   1.0201909963752849e+00   1.0200251841417831e+00   1.0149295816881769e+00   1.0189440040042936e+00   1.0057554013545609e+00   1.0154760008679404e+00   1.0000000000000000e+00   1.0148409924008592e+00   1.0005356735621160e+00   1.0203614359631954e+00   1.0065260529430300e+00   1.0285556423564033e+00   1.0029130205437369e+00   1.0288353178068106e+00   1.0000000000000000e+00   1.0071265590043765e+00   1.0173165739304750e+00   1.0057358360242010e+00   1.0229702147764392e+00   1.0356690824951367e+00   1.0047839874795974e+00   1.0367825308594463e+00   1.0000000000000000e+00   1.0201260426929701e+00   1.0000000000000000e+00   1.0100375462744675e+00   1.0035643170501247e+00   1.0093469995063522e+00   1.0146642977752545e+00   1.0145313557484443e+00   1.0200347323568195e+00   1.0193423980317455e+00   1.0169384564839310e+00   1.0196804783916207e+00   1.0085386651467145e+00   1.0164206039708206e+00   1.0008397966419262e+00   1.0137288151581858e+00   1.0000000000000000e+00   1.0141967901261157e+00   1.0000000000000000e+00   1.0145349601086990e+00   1.0003548362410721e+00   1.0060202124731439e+00   1.0193295305203101e+00   1.0000000000000000e+00   1.0000000000000000e+00   1.0000000000000000e+00   1.0163389131860265e+00   1.0000000000000000e+00   1.0538463375303084e+00   1.0538463375303082e+00   1.0528006715505875e+00   1.0675198270834281e+00   1.0404639501797686e+00   1.0603505659039199e+00   1.0290425120079898e+00   1.0432122029395250e+00   1.0229533720453166e+00   1.0289055418040296e+00   1.0225642565643382e+00   1.0238340032780477e+00   1.0278396575428925e+00   1.0304334729203437e+00   1.0390412600567371e+00   1.0471473993978830e+00   1.0550683948684711e+00   1.0689078465628896e+00   1.0705617046877591e+00   1.0869677805772295e+00   1.0735244319206123e+00   1.0894823713167532e+00   1.0517560879925192e+00   1.0656949369971978e+00   1.0162715023740507e+00   1.0250416723917233e+00   1.0236800572768474e+00   1.0137770773668802e+00   1.0741077533408097e+00   1.0622262298537679e+00   1.0896793386897961e+00   1.0989110138888283e+00   1.0721276021796040e+00   1.0974705785436254e+00   1.0491276217920107e+00   1.0760565287607453e+00   1.0319855751473388e+00   1.0504035465224804e+00   1.0234266036574544e+00   1.0313721322276193e+00   1.0220855938951510e+00   1.0237430409318904e+00   1.0261130428620726e+00   1.0280776808916388e+00   1.0340964821304024e+00   1.0409689644198319e+00   1.0436594880781827e+00   1.0558509478442621e+00   1.0482484926570390e+00   1.0630268248119505e+00   1.0367029746422762e+00   1.0512536130749974e+00   1.0000000000000000e+00   1.0145349616472770e+00   1.0000000000000000e+00   1.0000000000000000e+00   1.0000000000000000e+00   1.0000000000000000e+00   1.0117999076159192e+00   1.0000000000000000e+00   1.0675198270834279e+00   1.0528006715505869e+00   1.0933384981881247e+00   1.0933384981881245e+00   1.0875795810126796e+00   1.1056323150602556e+00   1.0609242830331462e+00   1.0835655306931291e+00   1.0358820144707452e+00   1.0498494076714326e+00   1.0312969495481326e+00   1.0330815295045572e+00   1.0515513037071940e+00   1.0490981675052484e+00   1.0842294025946648e+00   1.0860616646527932e+00   1.1119159682735329e+00   1.1191414952977210e+00   1.1198822564652879e+00   1.1296418284192216e+00   1.0990626783718587e+00   1.1102226515753706e+00   1.0537115759888824e+00   1.0664296253774168e+00   1.0133877878810991e+00   1.0211270204142529e+00   1.0211309019604775e+00   1.0100631918891902e+00   1.0710327695973754e+00   1.0488058008859091e+00   1.1149431105843213e+00   1.1019853298263265e+00   1.1275787321519086e+00   1.1354239040413980e+00   1.1078672904884685e+00   1.1327901235864122e+00   1.0713116894604144e+00   1.0994710307854878e+00   1.0395143885315790e+00   1.0569914812108454e+00   1.0298367117095821e+00   1.0335394435013610e+00   1.0448355374541369e+00   1.0432426250528375e+00   1.0703226088426090e+00   1.0726680275493814e+00   1.0876855049669421e+00   1.0958874387280024e+00   1.0821213579151354e+00   1.0942889283521953e+00   1.0482484941831243e+00   1.0630268260576239e+00   1.0000000000000000e+00   1.0141967924761217e+00   1.0000000000000000e+00   1.0000000000000000e+00   1.0000000000000000e+00   1.0023401516293653e+00   1.0085119971644989e+00   1.0000000000000000e+00   1.0603505659039196e+00   1.0404639501797681e+00   1.1056323150602556e+00   1.0875795810126800e+00   1.1191231765129741e+00   1.1191231765129741e+00   1.0967641219391981e+00   1.1129504868540112e+00   1.0573316851071042e+00   1.0744807370464682e+00   1.0441289670219200e+00   1.0453997157814778e+00   1.0765504351713870e+00   1.0685516585415107e+00   1.1183549517779734e+00   1.1145236774451219e+00   1.1381774964088753e+00   1.1379265773211913e+00   1.1253482819342362e+00   1.1275364055557979e+00   1.0866756024880906e+00   1.0917548158816435e+00   1.0392069647238726e+00   1.0469675256256346e+00   1.0073097754209757e+00   1.0118608443814445e+00   1.0110860802329138e+00   1.0036260255605585e+00   1.0500292271652130e+00   1.0283150111686268e+00   1.1024880082538104e+00   1.0748528602211693e+00   1.1420672886368248e+00   1.1226527412106666e+00   1.1452193999819429e+00   1.1465379422316047e+00   1.1131404342782854e+00   1.1325705635784613e+00   1.0644670416429638e+00   1.0853212039443503e+00   1.0418858458374669e+00   1.0466469460297605e+00   1.0658713250101675e+00   1.0601152352287802e+00   1.0992186348321125e+00   1.0976130623973968e+00   1.1096211725560345e+00   1.1132669189087321e+00   1.0876855048388712e+00   1.0958874386050907e+00   1.0436594896871796e+00   1.0558509483070528e+00   1.0008397981647033e+00   1.0137288161932485e+00   1.0000000000000000e+00   1.0000000000000000e+00   1.0052248885397117e+00   1.0160136763148162e+00   1.0109050286849945e+00   1.0074630689420108e+00   1.0432122029395250e+00   1.0290425120079896e+00   1.0835655306931296e+00   1.0609242830331465e+00   1.1129504868540110e+00   1.0967641219391979e+00   1.1232937384169721e+00   1.1232937384169719e+00   1.0785655231915128e+00   1.0934372678787412e+00   1.0485673228989278e+00   1.0473299688028974e+00   1.0844893175809054e+00   1.0726944265789073e+00   1.1205089776738002e+00   1.1082298819869885e+00   1.1189091025138216e+00   1.1115550562002561e+00   1.0917047202671897e+00   1.0865202487792676e+00   1.0544406034342604e+00   1.0533763337442346e+00   1.0214595016438837e+00   1.0239949122991543e+00   1.0027002110480898e+00   1.0051174702300951e+00   1.0039921601442110e+00   1.0005188285537336e+00   1.0257335458826451e+00   1.0117951074306217e+00   1.0624410971828910e+00   1.0377592852697872e+00   1.1041217828748433e+00   1.0738851325120571e+00   1.1320601935799284e+00   1.1108198424640949e+00   1.1398347707437559e+00   1.1384045492515629e+00   1.0874377376498066e+00   1.1046952782116426e+00   1.0452983663561499e+00   1.0483708242977676e+00   1.0736185337925768e+00   1.0640978047391361e+00   1.1042031826120466e+00   1.0957316733697904e+00   1.0992186239698385e+00   1.0976130625662106e+00   1.0703226084772137e+00   1.0726680167462270e+00   1.0340964817554694e+00   1.0409689637472019e+00   1.0085386644334722e+00   1.0164206028159928e+00   1.0061765669247764e+00   1.0088036977023727e+00   1.0182501902308070e+00   1.0252167737080216e+00   1.0164434529516897e+00   1.0172220194413901e+00   1.0289055418040292e+00   1.0229533720453161e+00   1.0498494076714322e+00   1.0358820144707448e+00   1.0744807370464675e+00   1.0573316851071033e+00   1.0934372678787414e+00   1.0785655231915126e+00   1.0484141903888862e+00   1.0484141903888866e+00   1.0188304287889296e+00   1.0091164272800932e+00   1.0637208450706366e+00   1.0263644604075610e+00   1.0779550020462105e+00   1.0647695988043249e+00   1.0677134943787026e+00   1.0568538469726785e+00   1.0437870050439602e+00   1.0366726764076293e+00   1.0223079312389083e+00   1.0188887573925036e+00   1.0079631404061598e+00   1.0073858629411439e+00   1.0009717941357885e+00   1.0016804686740799e+00   1.0007831640784639e+00   1.0001317735678767e+00   1.0079660804665682e+00   1.0026100112969778e+00   1.0238317080160568e+00   1.0109572314757194e+00   1.0479218248111175e+00   1.0269843518466442e+00   1.0757797377649281e+00   1.0511865515385677e+00   1.0976624908359076e+00   1.0759992553991180e+00   1.0533907842002259e+00   1.0501795764700164e+00   1.0175525226467643e+00   1.0101038458843996e+00   1.0580800777583497e+00   1.0239803232742315e+00   1.0736184595375844e+00   1.0640978828443284e+00   1.0658713202626950e+00   1.0601150923565898e+00   1.0448355301275867e+00   1.0432426262322310e+00   1.0261130416719628e+00   1.0280776797061042e+00   1.0169384543708349e+00   1.0196804768610843e+00   1.0192262984131077e+00   1.0202305037067210e+00   1.0232594475790866e+00   1.0249146635292030e+00   1.0200251841417833e+00   1.0201909963752849e+00   1.0238340032780480e+00   1.0225642565643387e+00   1.0330815295045570e+00   1.0312969495481328e+00   1.0453997157814767e+00   1.0441289670219194e+00   1.0473299688028967e+00   1.0485673228989272e+00   1.0091164272800930e+00   1.0188304287889292e+00   1.0040493262903294e+00   1.0040493262903294e+00   1.0154136055573526e+00   1.0094039078932442e+00   1.0384352456755399e+00   1.0421797609608530e+00   1.0304749426116435e+00   1.0361739884136656e+00   1.0155605218416852e+00   1.0200837730638888e+00   1.0057360861745819e+00   1.0081644844372055e+00   1.0014872622010953e+00   1.0020744381335693e+00   1.0004263981673018e+00   1.0003284938885333e+00   1.0004689351573766e+00   1.0004803147698031e+00   1.0020827644763217e+00   1.0020053659493602e+00   1.0077868077493382e+00   1.0068690657216506e+00   1.0192582608888034e+00   1.0173661037359725e+00   1.0347223484578336e+00   1.0329740659244862e+00   1.0410525547381977e+00   1.0418426714978861e+00   1.0083904585813865e+00   1.0167360233208460e+00   1.0042238235027350e+00   1.0038758278543982e+00   1.0175531206516466e+00   1.0101040964969905e+00   1.0452981504793777e+00   1.0483707436147123e+00   1.0418857990773844e+00   1.0466471265603348e+00   1.0298367184968833e+00   1.0335394610407813e+00   1.0220855941421170e+00   1.0237430471915547e+00   1.0200347318574208e+00   1.0193423995511846e+00   1.0261479211519928e+00   1.0227906613976150e+00   1.0173884381494327e+00   1.0149319658862299e+00   1.0189440040042936e+00   1.0149295816881774e+00   1.0304334729203437e+00   1.0278396575428927e+00   1.0490981675052475e+00   1.0515513037071931e+00   1.0685516585415100e+00   1.0765504351713853e+00   1.0726944265789062e+00   1.0844893175809047e+00   1.0263644604075601e+00   1.0637208450706348e+00   1.0094039078932446e+00   1.0154136055573533e+00   1.0553899783891891e+00   1.0553899783891905e+00   1.0855476342516606e+00   1.1097518106463815e+00   1.0595968128973587e+00   1.0881990539055644e+00   1.0327500242869627e+00   1.0577106411945483e+00   1.0140624646184278e+00   1.0299517619270828e+00   1.0035290230754272e+00   1.0105546450434966e+00   1.0000324840076766e+00   1.0011620444644205e+00   1.0021005942916617e+00   1.0012257287407427e+00   1.0096730465095538e+00   1.0102364434894431e+00   1.0238022966015672e+00   1.0280562258580712e+00   1.0442646096688408e+00   1.0534062245438669e+00   1.0663140148462964e+00   1.0802616477810947e+00   1.0738675701868106e+00   1.0898019732768742e+00   1.0288969952057727e+00   1.0697667068829964e+00   1.0083906437641403e+00   1.0167365996458240e+00   1.0533911920219738e+00   1.0501799413167108e+00   1.0874379511661303e+00   1.1046961685850387e+00   1.0644672494293228e+00   1.0853215143791288e+00   1.0395143972322944e+00   1.0569914743265982e+00   1.0234266124361113e+00   1.0313721535315570e+00   1.0146642996639850e+00   1.0145313567419554e+00   1.0229700054732009e+00   1.0145900511808816e+00   1.0036531736889573e+00   1.0003959516647649e+00   1.0154760008679413e+00   1.0057554013545613e+00   1.0471473993978830e+00   1.0390412600567374e+00   1.0860616646527910e+00   1.0842294025946633e+00   1.1145236774451204e+00   1.1183549517779705e+00   1.1082298819869869e+00   1.1205089776737984e+00   1.0647695988043235e+00   1.0779550020462088e+00   1.0421797609608552e+00   1.0384352456755415e+00   1.1097518106463837e+00   1.0855476342516632e+00   1.1570020526104754e+00   1.1570020526104758e+00   1.1306396255818960e+00   1.1553895717003013e+00   1.0896056615392440e+00   1.1259377957183323e+00   1.0472046667496013e+00   1.0773509726910970e+00   1.0156854684449832e+00   1.0332322072145628e+00   1.0015721235272632e+00   1.0066237577172674e+00   1.0071080330578148e+00   1.0048202866141298e+00   1.0303195888511907e+00   1.0276631794659969e+00   1.0657816074082591e+00   1.0677054636342598e+00   1.1043956569252158e+00   1.1120170288723286e+00   1.1312467890119950e+00   1.1422896416400539e+00   1.1221363233222184e+00   1.1391578256749426e+00   1.0738677234372649e+00   1.0898018814161885e+00   1.0410525152130965e+00   1.0418425364682349e+00   1.0976633271561540e+00   1.0759993854072056e+00   1.1398361199404325e+00   1.1384059578433472e+00   1.1131406298875572e+00   1.1325703790878685e+00   1.0713117223222912e+00   1.0994710751096810e+00   1.0319855893815491e+00   1.0504035632239130e+00   1.0035643167950750e+00   1.0093469989994732e+00   1.0110790770425837e+00   1.0000000000000000e+00   1.0000000000000000e+00   1.0000000000000000e+00   1.0148409924008599e+00   1.0000000000000000e+00   1.0689078465628896e+00   1.0550683948684716e+00   1.1191414952977188e+00   1.1119159682735322e+00   1.1379265773211880e+00   1.1381774964088727e+00   1.1115550562002521e+00   1.1189091025138174e+00   1.0568538469726769e+00   1.0677134943786988e+00   1.0361739884136689e+00   1.0304749426116457e+00   1.0881990539055655e+00   1.0595968128973603e+00   1.1553895717003015e+00   1.1306396255818960e+00   1.1791676749494606e+00   1.1791676749494604e+00   1.1530460297741612e+00   1.1797771307170539e+00   1.0956572207130628e+00   1.1322192188533278e+00   1.0389049592296722e+00   1.0677424077504791e+00   1.0084906233484809e+00   1.0195251890372508e+00   1.0182566883534840e+00   1.0143330644490662e+00   1.0612523003631349e+00   1.0534621517395368e+00   1.1164234205827752e+00   1.1128660472209202e+00   1.1593978427409470e+00   1.1612368971823923e+00   1.1679671052243130e+00   1.1744284364564679e+00   1.1312467972410363e+00   1.1422896298258696e+00   1.0663138712037912e+00   1.0802616590089960e+00   1.0347224733616525e+00   1.0329740196264705e+00   1.0757800355691083e+00   1.0511866919308752e+00   1.1320600706133888e+00   1.1108201196048963e+00   1.1452190593435687e+00   1.1465375754327729e+00   1.1078673041952616e+00   1.1327902131203709e+00   1.0491276249533361e+00   1.0760565212536557e+00   1.0000000000000000e+00   1.0100375493302833e+00   1.0000000000000000e+00   1.0000000000000000e+00   1.0000000000000000e+00   1.0000000000000000e+00   1.0203614359631961e+00   1.0005356735621174e+00   1.0869677805772286e+00   1.0705617046877585e+00   1.1296418284192207e+00   1.1198822564652859e+00   1.1275364055557948e+00   1.1253482819342335e+00   1.0865202487792631e+00   1.0917047202671859e+00   1.0366726764076255e+00   1.0437870050439557e+00   1.0200837730638912e+00   1.0155605218416854e+00   1.0577106411945492e+00   1.0327500242869645e+00   1.1259377957183316e+00   1.0896056615392438e+00   1.1797771307170533e+00   1.1530460297741598e+00   1.1870028210273675e+00   1.1870028210273667e+00   1.1415739622979784e+00   1.1680484513247089e+00   1.0713698653207415e+00   1.1044194754966588e+00   1.0228370378640732e+00   1.0389146462318031e+00   1.0364190609360739e+00   1.0299380632728325e+00   1.0949157809079888e+00   1.0825718359405949e+00   1.1538365286983665e+00   1.1457569652519239e+00   1.1791231053584177e+00   1.1761790093189322e+00   1.1593978445733386e+00   1.1612368983584753e+00   1.1043956486146613e+00   1.1120170330560606e+00   1.0442646173766685e+00   1.0534062218754741e+00   1.0192582773869536e+00   1.0173661105214187e+00   1.0479218288769399e+00   1.0269843522752018e+00   1.1041218281347780e+00   1.0738851866481045e+00   1.1420673585806760e+00   1.1226527334610652e+00   1.1275787840591394e+00   1.1354239640721913e+00   1.0721276108528708e+00   1.0974705749405556e+00   1.0000000000000000e+00   1.0201260550189382e+00   1.0000000000000000e+00   1.0000000000000000e+00   1.0000000000000000e+00   1.0114864225050111e+00   1.0285556423564037e+00   1.0065260529430307e+00   1.0894823713167514e+00   1.0735244319206112e+00   1.1102226515753681e+00   1.0990626783718560e+00   1.0917548158816408e+00   1.0866756024880890e+00   1.0533763337442310e+00   1.0544406034342575e+00   1.0188887573925007e+00   1.0223079312389058e+00   1.0081644844372062e+00   1.0057360861745810e+00   1.0299517619270828e+00   1.0140624646184275e+00   1.0773509726910959e+00   1.0472046667495998e+00   1.1322192188533251e+00   1.0956572207130602e+00   1.1680484513247091e+00   1.1415739622979768e+00   1.1636042303930183e+00   1.1636042303930194e+00   1.1100803231973937e+00   1.1370164558781162e+00   1.0417874074671984e+00   1.0647096724324874e+00   1.0536542200184349e+00   1.0458575320896095e+00   1.1160301284015612e+00   1.0995745956513121e+00   1.1567450750814203e+00   1.1454337530898080e+00   1.1538365318658552e+00   1.1457569689953848e+00   1.1164234238721380e+00   1.1128660520508842e+00   1.0657816116859848e+00   1.0677054673161184e+00   1.0238023004857768e+00   1.0280562294796034e+00   1.0077868103376639e+00   1.0068690672515586e+00   1.0238317242256085e+00   1.0109572349172014e+00   1.0624411168587171e+00   1.0377593019543667e+00   1.1024880065978035e+00   1.0748528663091867e+00   1.1149431123537972e+00   1.1019853446003411e+00   1.0896793654589254e+00   1.0989110388129262e+00   1.0047839968267513e+00   1.0367825547566043e+00   1.0000000000000000e+00   1.0000000000000000e+00   1.0000000000000000e+00   1.0505125874793853e+00   1.0288353178068106e+00   1.0029130205437387e+00   1.0656949369971946e+00   1.0517560879925170e+00   1.0664296253774150e+00   1.0537115759888800e+00   1.0469675256256328e+00   1.0392069647238715e+00   1.0239949122991523e+00   1.0214595016438823e+00   1.0073858629411427e+00   1.0079631404061586e+00   1.0020744381335693e+00   1.0014872622010949e+00   1.0105546450434955e+00