<?xml version="1.0"?>
<VTKFile type="UnstructuredGrid"  version="0.1"  >
<UnstructuredGrid>
<Piece  NumberOfPoints="961" NumberOfCells="1800">
<Points>
<DataArray  type="Float64"  NumberOfComponents="3"  format="ascii">0 0 0  0.03333333333333333 0 0  0.06666666666666667 0 0  0.1 0 0  0.1333333333333333 0 0  0.1666666666666667 0 0  0.2 0 0  0.2333333333333333 0 0  0.2666666666666667 0 0  0.3 0 0  0.3333333333333333 0 0  0.3666666666666666 0 0  0.4 0 0  0.4333333333333333 0 0  0.4666666666666667 0 0  0.5 0 0  0.5333333333333333 0 0  0.5666666666666667 0 0  0.6 0 0  0.6333333333333333 0 0  0.6666666666666666 0 0  0.7 0 0  0.7333333333333333 0 0  0.7666666666666667 0 0  0.8 0 0  0.8333333333333334 0 0  0.8666666666666667 0 0  0.9 0 0  0.9333333333333333 0 0  0.9666666666666667 0 0  1 0 0  0 0.03333333333333333 0  0.03454986154867063 0.03454986154867063 0  0.0687062801526741 0.0343909212795996 0  0.1023190731334831 0.03348478764284232 0  0.1354819203818282 0.03233561719517351 0  0.1683579811812578 0.03127388502174464 0  0.2010805134881513 0.03049744431068688 0  0.233733054049055 0.03011919343768578 0  0.2663632775041697 0.03019516014406309 0  0.2990063713515479 0.03073687173702847 0  0.3317100666089779 0.03171472491618175 0  0.3645579145690905 0.03305314178268904 0  0.3976837060713169 0.03461275053524682 0  0.4312546383730367 0.03615834200050023 0  0.4653788048807745 0.03734114314341747 0  0.4999335007091664 0.03778319954653196 0  0.5345090669575984 0.03731043230335109 0  0.5686812346144691 0.03610491837987281 0  0.6023036671667836 0.03454900422698619 0  0.6354725032249163 0.03299104450897208 0  0.6683524145763481 0.03166356754782688 0  0.7010775862219092 0.0307031294063915 0  0.7337321496305818 0.03018271716293248 0  0.7663642078401206 0.03012933990909379 0  0.7990093267635719 0.03052882815995415 0  0.8317156667483051 0.03132259024543595 0  0.8645673762523453 0.03239522235472443 0  0.8976991779212699 0.03354624344397343 0  0.9312797851646881 0.03444278533842902 0  0.965419721754782 0.03458027824521398 0  1 0.03333333333333333 0  0 0.06666666666666667 0  0.03439092127959961 0.0687062801526741 0  0.06848021023414104 0.068480210234141 0  0.10210697406573 0.06691052505088647 0  0.1353170203614004 0.06482060141719359 0  0.1682476279954563 0.06282212261290367 0  0.2010289016297678 0.06132398963521418 0  0.2337448602360157 0.06057795111789208 0  0.2664375923527748 0.06071176581921377 0  0.299133384513491 0.06174506041386831 0  0.3318753798650318 0.06359559500917605 0  0.364749583419223 0.06607694362324742 0  0.3978902777455929 0.06888240401401279 0  0.4314457604137984 0.07156233924924922 0  0.4654866600419614 0.07354363643286112 0  0.4998883510989373 0.07427992215950251 0  0.5343204342743428 0.07353163603439948 0  0.5684359453072643 0.0715325009537619 0  0.6020792838665849 0.06883387369692633 0  0.63529989605353 0.06601785238586205 0  0.6682374291360516 0.06353901043185176 0  0.701023514981434 0.06170395630491782 0  0.7337431931473681 0.06069544493286037 0  0.7664393080848552 0.06058979398319663 0  0.79913882053435 0.06136065992960197 0  0.8318856295175775 0.06287446760274457 0  0.8647667608285949 0.06487603218693264 0  0.897918025470601 0.06695670557797087 0  0.9314900915113893 0.06850990848860716 0  0.9655572146615694 0.068720214835319 0  1 0.06666666666666667 0  0 0.1 0  0.03348478764284233 0.1023190731334831 0  0.06691052505088649 0.1021069740657298 0  0.1002334766877563 0.1002334766877562 0  0.1334881404218224 0.09757548153724034 0  0.1667451330234635 0.09490163246883127 0  0.2000578472766345 0.09281707776910125 0  0.2334302675079422 0.091744191816335 0  0.2668176001891024 0.09190967046531015 0  0.3001565027310374 0.0933364520209919 0  0.3334070340460143 0.09585251122236231 0  0.3665817460915739 0.09911588735324735 0  0.3997462794015518 0.1026440663053326 0  0.4329891869518583 0.1058505931228051 0  0.4663698800039154 0.1081197502042214 0  0.4998712782945893 0.1089511589404301 0  0.5334008903419386 0.1081409902176357 0  0.5668564048697422 0.105876614068614 0  0.6001988806475286 0.1026565209507252 0  0.633466392253081 0.09910745133979373 0  0.666732031457074 0.09582920839313823 0  0.7000508788436992 0.09331210839226449 0  0.7334281050990897 0.09189757711883965 0  0.7668198291998551 0.09174983369697369 0  0.8001635340053211 0.0928352307975224 0  0.8334201896361733 0.09491941498030426 0  0.8666035323429175 0.09757974431489824 0  0.8997808895429967 0.1002191104570012 0  0.9330432944220297 0.1020819745294016 0  0.9664537565560259 0.1023008220787374 0  1 0.1 0  0 0.1333333333333333 0  0.03233561719517352 0.1354819203818282 0  0.06482060141719362 0.1353170203614002 0  0.09757548153724038 0.1334881404218223 0  0.1307202280561774 0.1307202280561773 0  0.1643381579322487 0.1277654174028638 0  0.1984273023025852 0.1253407221895231 0  0.2328648112240801 0.1240363786533773 0  0.2674162688133888 0.1242005679927637 0  0.3018055890952614 0.1258554367064685 0  0.3358120046928758 0.1287082909938674 0  0.3693326261830454 0.1322521633205259 0  0.4023851306066406 0.1358890012019007 0  0.4350702014966117 0.1390281342552868 0  0.467523377995168 0.1411615281112892 0  0.4998782432455827 0.1419348117833961 0  0.5322541397832447 0.1412129347366003 0  0.5647667666401813 0.139112333881226 0  0.5975403330358205 0.1359783211664635 0  0.6306977393905595 0.1323226901151148 0  0.6643244251760385 0.1287492202918049 0  0.69841993220557 0.1258706254386169 0  0.732862516958689 0.1242009650425213 0  0.7674186429060063 0.1240278476553869 0  0.8018130299369477 0.1253178790965405 0  0.8358257887591423 0.1277178886158858 0  0.8693551346330955 0.1306448653669022 0  0.902420255685102 0.1333964676570838 0  0.9351239678130691 0.1352332391714073 0  0.9676047776452729 0.135432623747652 0  1 0.1333333333333333 0  0 0.1666666666666667 0  0.03127388502174465 0.1683579811812577 0  0.06282212261290367 0.168247627995456 0  0.09490163246883131 0.1667451330234633 0  0.1277654174028638 0.1643381579322485 0  0.1616110347019394 0.1616110347019393 0  0.1964819157445398 0.1592387419429391 0  0.2321543361200445 0.1578911228959268 0  0.2681148989178517 0.1580170272490676 0  0.3037290591531768 0.1596373111512579 0  0.3385096901520614 0.1623558439033995 0  0.3722628884062963 0.1655765669415267 0  0.4050510444445676 0.1687176643418993 0  0.4370810502813319 0.1713110386313327 0  0.4686112021790351 0.173020777308032 0  0.4999026495584204 0.1736404317516592 0  0.5312075783354484 0.1730946164956491 0  0.5627775527749198 0.1714426763508963 0  0.5948720555818074 0.1688789882777954 0  0.627746208519429 0.1657343502836199 0  0.6615991532064129 0.1624806806858396 0  0.6964754797274908 0.1597120592359641 0  0.7321523287677378 0.1580383164369773 0  0.7681169962430733 0.1578603557170992 0  0.8037355727296552 0.1591550694843856 0  0.8385216241113618 0.1614783758886347 0  0.8722821113841142 0.1641742112408595 0  0.9050805850196975 0.1665798103638281 0  0.9371255323972535 0.1681143704824189 0  0.9686774097545622 0.1682843332516898 0  1 0.1666666666666667 0  0 0.2 0  0.03049744431068688 0.2010805134881511 0  0.06132398963521415 0.2010289016297675 0  0.09281707776910127 0.2000578472766343 0  0.1253407221895232 0.1984273023025849 0  0.1592387419429392 0.1964819157445395 0  0.1946899533580689 0.1946899533580687 0  0.2314589830891702 0.1936065676985814 0  0.2687421504754967 0.1936601775281601 0  0.3054587487248638 0.194874644736646 0  0.3408371266337415 0.1968705937758434 0  0.3746696585320142 0.1991421670831242 0  0.4071457672795953 0.2012724330016476 0  0.4386109333671009 0.2029794350518414 0  0.4694291815979318 0.2040877085981093 0  0.4999386548973145 0.2044985183312785 0  0.5304553542942479 0.2041758178356739 0  0.5612954997211945 0.2031431622865014 0  0.5927980476690572 0.2014876096013742 0  0.6253282841778106 0.1993744853705989 0  0.6592310015372482 0.1970787720836655 0  0.6946857424866535 0.195017521671921 0  0.7314576786522016 0.1937077860759573 0  0.7687435553761769 0.1935484390417555 0  0.805463047990582 0.194536952009411 0  0.8408449305156138 0.1962644272703501 0  0.8746821209034622 0.1981869700630553 0  0.9071647692024756 0.1998364659946751 0  0.9386393400703952 0.2008611794656452 0  0.9694711718400459 0.2009906732364257 0  1 0.2 0  0 0.2333333333333333 0  0.03011919343768574 0.2337330540490548 0  0.06057795111789202 0.2337448602360154 0  0.091744191816335 0.2334302675079419 0  0.1240363786533773 0.2328648112240797 0  0.1578911228959269 0.2321543361200442 0  0.1936065676985816 0.2314589830891701 0  0.23099643660105 0.2309964366010498 0  0.2690824845234667 0.2309612644225661 0  0.3064504390479165 0.231381584186878 0  0.3421375979274602 0.2321029648775267 0  0.3759688046383755 0.2329229695785018 0  0.4082448971261932 0.2336878229396531 0  0.4394020634151325 0.2343023898949432 0  0.4698582401720298 0.234711159574099 0  0.4999813355852845 0.2348832187855376 0  0.530106679407149 0.2348054719629103 0  0.5605697369962379 0.2344809021412664 0  0.5917389102837138 0.2339299865285977 0  0.6240330735930024 0.2331967900678876 0  0.6578891588518354 0.2323635844505105 0  0.6936055517060858 0.2315728777592297 0  0.7309961591579892 0.2310291626833946 0  0.7690828782149546 0.2309171217850278 0  0.8064515609582454 0.2312564446238347 0  0.8421396442829069 0.2318830037569342 0  0.8759721523446098 0.2325813570939879 0  0.908250166303022 0.2331801708001397 0  0.9394102060168021 0.2335606919151433 0  0.9698706600909072 0.2336357921598793 0  1 0.2333333333333334 0  0 0.2666666666666667 0  0.03019516014406308 0.2663632775041695 0  0.06071176581921374 0.2664375923527744 0  0.09190967046531016 0.2668176001891022 0  0.1242005679927638 0.2674162688133884 0  0.1580170272490677 0.2681148989178513 0  0.1936601775281603 0.2687421504754964 0  0.2309612644225662 0.2690824845234664 0  0.2689715668122708 0.2689715668122706 0  0.3062946101812133 0.2684288279276044 0  0.3419659588296894 0.2676387533599193 0  0.3758056004314503 0.2668057499440574 0  0.4081119522924292 0.2660723271321204 0  0.4393180587620793 0.2655208148992485 0 
[...]
<CellData  Scalars="q"> 
<DataArray  type="Float64"  Name="q"  format="ascii">1.0005560240789024e+00   1.0005560240789024e+00   1.0000000000000000e+00   1.0000000000000000e+00   1.0000000000000000e+00   1.0000000000000000e+00   1.0000000000000000e+00   1.0000000000000000e+00   1.0002876453558915e+00   1.0000000000000000e+00   1.0025738022048181e+00   1.0006090694568262e+00   1.0042000754894578e+00   1.0027378947494920e+00   1.0042140661518058e+00   1.0036238860740823e+00   1.0025405949732651e+00   1.0027059924810633e+00   1.0000621475244609e+00   1.0004405252013646e+00   1.0000000000000000e+00   1.0000000000000000e+00   1.0000000000000000e+00   1.0000000000000000e+00   1.0006663056582379e+00   1.0000000000000000e+00   1.0040463568866944e+00   1.0009375217994183e+00   1.0060175865267473e+00   1.0036391608570814e+00   1.0049267377992328e+00   1.0041121536934892e+00   1.0017026075684008e+00   1.0019046061489201e+00   1.0000000000000000e+00   1.0000000000000000e+00   1.0000000000000000e+00   1.0000000000000000e+00   1.0000000000000000e+00   1.0000000000000000e+00   1.0018927514638265e+00   1.0000000000000000e+00   1.0038975145276468e+00   1.0022414396542019e+00   1.0043703547756015e+00   1.0035558220168699e+00   1.0031175265026049e+00   1.0030799460096880e+00   1.0008984152298972e+00   1.0011738849739182e+00   1.0000000000000000e+00   1.0000000000000000e+00   1.0000000000000000e+00   1.0000000000000000e+00   1.0000000000000000e+00   1.0000000000000000e+00   1.0010095809202229e+00   1.0000705026963748e+00   1.0000957070724124e+00   1.0008956579352670e+00   1.0000000000000000e+00   1.0000000000000000e+00   1.0000000000000000e+00   1.0000000000000000e+00   1.0000000000000000e+00   1.0009933258550379e+00   1.0000000000000000e+00   1.0013320952563376e+00   1.0000000000000000e+00   1.0012557967305680e+00   1.0007428975998667e+00   1.0013880034324421e+00   1.0020496478731293e+00   1.0018090044768546e+00   1.0025344304001516e+00   1.0021735098610793e+00   1.0018961578896848e+00   1.0022073370756455e+00   1.0005816896520083e+00   1.0020116005121258e+00   1.0000000000000000e+00   1.0019048047360899e+00   1.0000000000000000e+00   1.0019857135014969e+00   1.0000000000000000e+00   1.0019325858186818e+00   1.0005436710798070e+00   1.0014535116040999e+00   1.0015465580295513e+00   1.0009841171157807e+00   1.0020002763936346e+00   1.0013006786008813e+00   1.0013502862221724e+00   1.0021675707139750e+00   1.0000000000000000e+00   1.0025114554574572e+00   1.0000000000000000e+00   1.0020003743903778e+00   1.0000000000000000e+00   1.0013304545445516e+00   1.0002217353170546e+00   1.0011884840709984e+00   1.0017277119940615e+00   1.0015933292911900e+00   1.0025023992463056e+00   1.0020866120209644e+00   1.0021410253187941e+00   1.0022693759538637e+00   1.0009963640273374e+00   1.0021229235868354e+00   1.0000000000000000e+00   1.0018693173895994e+00   1.0000000000000000e+00   1.0015576071265917e+00   1.0000000000000000e+00   1.0009741880069623e+00   1.0002583547002146e+00   1.0000957126205026e+00   1.0010095809202215e+00   1.0000705026963703e+00   1.0000000000000000e+00   1.0000000000000000e+00   1.0009933258550379e+00   1.0000000000000000e+00   1.0050211459697878e+00   1.0050211459697878e+00   1.0067828385019979e+00   1.0087102853131400e+00   1.0058624524665445e+00   1.0086569613559784e+00   1.0037578305950521e+00   1.0059128168803142e+00   1.0020838750194678e+00   1.0028667937979465e+00   1.0018029646206230e+00   1.0015551166178653e+00   1.0031079967881107e+00   1.0028261970654906e+00   1.0054940167074589e+00   1.0061419771255120e+00   1.0078298764220168e+00   1.0098110943888481e+00   1.0086304948760445e+00   1.0116451485873457e+00   1.0068729011014816e+00   1.0100893740318277e+00   1.0032445948094186e+00   1.0055935008753119e+00   1.0004969533221102e+00   1.0011523391673487e+00   1.0012514228997884e+00   1.0004619447676342e+00   1.0049266586727843e+00   1.0043088894300909e+00   1.0082495516875192e+00   1.0094423818789480e+00   1.0088444706967969e+00   1.0119431434255488e+00   1.0069395888547115e+00   1.0105968856298522e+00   1.0042022696837933e+00   1.0068880485596809e+00   1.0021996227220296e+00   1.0032434931029617e+00   1.0017406550971975e+00   1.0015616319727521e+00   1.0028395333742377e+00   1.0024964016608795e+00   1.0048234615256697e+00   1.0053136837033749e+00   1.0064559999203537e+00   1.0081774382070694e+00   1.0062263589921592e+00   1.0088716200552730e+00   1.0035739189204678e+00   1.0061313162780106e+00   1.0000000000000000e+00   1.0009741880069711e+00   1.0000000000000000e+00   1.0000000000000000e+00   1.0000000000000000e+00   1.0000000000000000e+00   1.0013320952563376e+00   1.0000000000000000e+00   1.0087102853131400e+00   1.0067828385019979e+00   1.0128795511015110e+00   1.0128795511015107e+00   1.0117555984611590e+00   1.0139539745769137e+00   1.0070031463391613e+00   1.0097918350899637e+00   1.0024589826769668e+00   1.0040444473373351e+00   1.0014567691922145e+00   1.0011623640011555e+00   1.0048531444414863e+00   1.0034332110062929e+00   1.0106796141414915e+00   1.0095237333491505e+00   1.0154292956481696e+00   1.0155632411105520e+00   1.0160558227869254e+00   1.0177167511284853e+00   1.0117860543185186e+00   1.0144707260231156e+00   1.0050238106748002e+00   1.0076137974135593e+00   1.0003690641150762e+00   1.0014765063185198e+00   1.0013985708629596e+00   1.0003291717275387e+00   1.0074746968343007e+00   1.0051597528682534e+00   1.0141377340013182e+00   1.0126486487597415e+00   1.0168548998418858e+00   1.0177059248917395e+00   1.0142099702561005e+00   1.0171620097034588e+00   1.0082867790488361e+00   1.0116402099945967e+00   1.0029313813464238e+00   1.0048825717035448e+00   1.0013124632688806e+00   1.0012436824542943e+00   1.0040599696172250e+00   1.0028003982282985e+00   1.0089963185169379e+00   1.0079985450595050e+00   1.0125085777197620e+00   1.0128254777765533e+00   1.0116268189806383e+00   1.0134851538184173e+00   1.0062263589921623e+00   1.0088716200552736e+00   1.0000000000000000e+00   1.0015576071265919e+00   1.0000000000000000e+00   1.0000000000000000e+00   1.0000000000000000e+00   1.0002876453558915e+00   1.0012557967305682e+00   1.0000000000000000e+00   1.0086569613559782e+00   1.0058624524665447e+00   1.0139539745769135e+00   1.0117555984611588e+00   1.0138263205400753e+00   1.0138263205400753e+00   1.0086110016299064e+00   1.0103378267475902e+00   1.0026631925854377e+00   1.0042343314952151e+00   1.0010187083186142e+00   1.0007309228197947e+00   1.0052421637862623e+00   1.0030494761530810e+00   1.0122896153632235e+00   1.0095016147385012e+00   1.0173055814478160e+00   1.0153109926969615e+00   1.0171322351853662e+00   1.0166535165938884e+00   1.0119767836034970e+00   1.0129454570349599e+00   1.0049924569012587e+00   1.0065873981530329e+00   1.0004186881639026e+00   1.0013193272071730e+00   1.0011172861834394e+00   1.0002029591822803e+00   1.0067718345466232e+00   1.0039748390812917e+00   1.0139710041210561e+00   1.0105466403041041e+00   1.0182176565674603e+00   1.0160313708108044e+00   1.0166880998300607e+00   1.0168850495010269e+00   1.0102501223239844e+00   1.0122566428459134e+00   1.0033321503764432e+00   1.0051756466551587e+00   1.0008792799367063e+00   1.0008587477633557e+00   1.0042740463202429e+00   1.0023966551522296e+00   1.0103029233859524e+00   1.0079536423147561e+00   1.0140462004418227e+00   1.0126743091616965e+00   1.0125085777197622e+00   1.0128254777765544e+00   1.0064559999203468e+00   1.0081774382070616e+00   1.0000000000000000e+00   1.0018693173895923e+00   1.0000000000000000e+00   1.0000000000000000e+00   1.0006090694568262e+00   1.0025738022048178e+00   1.0013880034324421e+00   1.0007428975998667e+00   1.0059128168803142e+00   1.0037578305950521e+00   1.0097918350899637e+00   1.0070031463391615e+00   1.0103378267475900e+00   1.0086110016299061e+00   1.0068191524200749e+00   1.0068191524200749e+00   1.0020613446381843e+00   1.0028955664894936e+00   1.0004500648114025e+00   1.0002993325718830e+00   1.0036840633050117e+00   1.0016417039536840e+00   1.0090639903087644e+00   1.0058258449688591e+00   1.0124652103209266e+00   1.0093729423263071e+00   1.0118288630643741e+00   1.0098713302055260e+00   1.0079488050671559e+00   1.0074047921687539e+00   1.0032640015495955e+00   1.0037000443660404e+00   1.0003097114692976e+00   1.0007835366574711e+00   1.0005919729093409e+00   1.0000722783602223e+00   1.0040145181139533e+00   1.0019246146792180e+00   1.0088699552848910e+00   1.0055085294334845e+00   1.0124424631608471e+00   1.0089896934814471e+00   1.0122886099364412e+00   1.0101989190278853e+00   1.0080475583575916e+00   1.0079467348956954e+00   1.0026108052496787e+00   1.0035133042385742e+00   1.0003684846176792e+00   1.0004103014666448e+00   1.0029685755940272e+00   1.0012481170087419e+00   1.0076582673555745e+00   1.0049223527922724e+00   1.0103029233859508e+00   1.0079536423147586e+00   1.0089963185169291e+00   1.0079985450594935e+00   1.0048234615256599e+00   1.0053136837033645e+00   1.0009963640273360e+00   1.0021229235868339e+00   1.0008984152298963e+00   1.0011738849739202e+00   1.0027378947494920e+00   1.0042000754894578e+00   1.0018090044768546e+00   1.0020496478731293e+00   1.0028667937979463e+00   1.0020838750194678e+00   1.0040444473373351e+00   1.0024589826769665e+00   1.0042343314952149e+00   1.0026631925854375e+00   1.0028955664894936e+00   1.0020613446381841e+00   1.0009344658556421e+00   1.0009344658556421e+00   1.0000612983921817e+00   1.0000920758728773e+00   1.0011900152706434e+00   1.0002611904426557e+00   1.0033526340603753e+00   1.0013583874959084e+00   1.0047187299073548e+00   1.0024160743483805e+00   1.0044263290098883e+00   1.0026056710522278e+00   1.0029363843065913e+00   1.0019545785836241e+00   1.0012388220110435e+00   1.0010041702883472e+00   1.0001639411363445e+00   1.0002647210893849e+00   1.0001481238896066e+00   1.0000201584656072e+00   1.0012107521743285e+00   1.0003608050116160e+00   1.0029239107748229e+00   1.0011867807507009e+00   1.0044182952374048e+00   1.0021321380883419e+00   1.0046780831763997e+00   1.0026083813560116e+00   1.0032922888177489e+00   1.0021825640587259e+00   1.0011638104927261e+00   1.0010786069270727e+00   1.0000530079264365e+00   1.0001400527190851e+00   1.0009558040850224e+00   1.0001880108532957e+00   1.0029685755940276e+00   1.0012481170087453e+00   1.0042740463202340e+00   1.0023966551522203e+00   1.0040599696172148e+00   1.0028003982282887e+00   1.0028395333742368e+00   1.0024964016608795e+00   1.0021410253187968e+00   1.0022693759538661e+00   1.0031175265026075e+00   1.0030799460096913e+00   1.0036238860740825e+00   1.0042140661518058e+00   1.0021735098610793e+00   1.0025344304001516e+00   1.0015551166178653e+00   1.0018029646206232e+00   1.0011623640011555e+00   1.0014567691922145e+00   1.0007309228197947e+00   1.0010187083186139e+00   1.0002993325718830e+00   1.0004500648114023e+00   1.0000920758728773e+00   1.0000612983921817e+00   1.0000338538159905e+00   1.0000338538159905e+00   1.0000120953692999e+00   1.0001383613548782e+00   1.0001541987829043e+00   1.0002909239834787e+00   1.0003394342075733e+00   1.0004610858052838e+00   1.0003466800855876e+00   1.0004545934250921e+00   1.0002184757089911e+00   1.0002703716335573e+00   1.0001034865337306e+00   1.0000899191079968e+00   1.0000493013929257e+00   1.0000223346389427e+00   1.0000360219393158e+00   1.0000573730592603e+00   1.0000786977350207e+00   1.0001704557111242e+00   1.0002014289458721e+00   1.0003531220532547e+00   1.0003268413577082e+00   1.0005219826751226e+00   1.0003089457990699e+00   1.0004999783419257e+00   1.0001688596353042e+00   1.0002442384081922e+00   1.0000870938649451e+00   1.0000237932434723e+00   1.0000397524142313e+00   1.0000284368550274e+00   1.0000530079264369e+00   1.0001400527190842e+00   1.0003684846176770e+00   1.0004103014666457e+00   1.0008792799367014e+00   1.0008587477633593e+00   1.0013124632688803e+00   1.0012436824542927e+00   1.0017406550971986e+00   1.0015616319727498e+00   1.0025023992463082e+00   1.0020866120209664e+00   1.0043703547756060e+00   1.0035558220168739e+00   1.0027059924810633e+00   1.0025405949732651e+00   1.0022073370756455e+00   1.0018961578896848e+00   1.0028261970654904e+00   1.0031079967881107e+00   1.0034332110062927e+00   1.0048531444414861e+00   1.0030494761530810e+00   1.0052421637862619e+00   1.0016417039536840e+00   1.0036840633050117e+00   1.0002611904426555e+00   1.0011900152706432e+00   1.0001383613548782e+00   1.0000120953692999e+00   1.0013316826516778e+00   1.0013316826516780e+00   1.0027963099359394e+00   1.0039811311094466e+00   1.0034092028285109e+00   1.0057749029589393e+00   1.0028445381761844e+00   1.0055425488352217e+00   1.0016214630410010e+00   1.0037287324182600e+00   1.0005006991141481e+00   1.0015703395003042e+00   1.0000077182205771e+00   1.0001894360108752e+00   1.0003206019003552e+00   1.0001805486097988e+00   1.0013152163074575e+00   1.0015374885174935e+00   1.0025765423244652e+00   1.0036792585728729e+00   1.0034193776665687e+00   1.0055315755490208e+00   1.0031654929025737e+00   1.0058696546226966e+00   1.0017935097357196e+00   1.0041549905317217e+00   1.0003473955581517e+00   1.0014572454186159e+00   1.0000870938649438e+00   1.0000237932434732e+00   1.0011638104927338e+00   1.0010786069270805e+00   1.0026108052496936e+00   1.0035133042385980e+00   1.0033321503764436e+00   1.0051756466551631e+00   1.0029313813464116e+00   1.0048825717035190e+00   1.0021996227220242e+00   1.0032434931029535e+00   1.0017277119940649e+00   1.0015933292911923e+00   1.0038975145276510e+00   1.0022414396542059e+00   1.0004405252013644e+00   1.0000621475244604e+00   1.0020116005121258e+00   1.0005816896520081e+00   1.0061419771255118e+00   1.0054940167074589e+00   1.0095237333491496e+00   1.0106796141414904e+00   1.0095016147385010e+00   1.0122896153632224e+00   1.0058258449688586e+00   1.0090639903087641e+00   1.0013583874959084e+00   1.0033526340603749e+00   1.0002909239834790e+00   1.0001541987829046e+00   1.0039811311094464e+00   1.0027963099359392e+00   1.0093480641448935e+00   1.0093480641448935e+00   1.0121722000858242e+00   1.0145555278219915e+00   1.0108410844479074e+00   1.0148903616749554e+00   1.0067106411676450e+00   1.0107073908220205e+00   1.0023815017184643e+00   1.0049079032900445e+00   1.0001111721407439e+00   1.0007772006444049e+00   1.0009522210131103e+00   1.0004107763935957e+00   1.0044759678862853e+00   1.0039475106992006e+00   1.0089358937748034e+00   1.0095633960266168e+00   1.0118589824830062e+00   1.0141810136997578e+00   1.0111816542863963e+00   1.0148608699562858e+00   1.0068517390912981e+00   1.0106806392593271e+00   1.0017935097357236e+00   1.0041549905317224e+00   1.0001688596353042e+00   1.0002442384081887e+00   1.0032922888177733e+00   1.0021825640587394e+00   1.0080475583575972e+00   1.0079467348957021e+00   1.0102501223239504e+00   1.0122566428458648e+00   1.0082867790488086e+00   1.0116402099945632e+00   1.0042022696837924e+00   1.0068880485596798e+00   1.0002217353170564e+00   1.0011884840709999e+00   1.0018927514638296e+00   1.0000000000000000e+00   1.0000000000000000e+00   1.0000000000000000e+00   1.0019048047360894e+00   1.0000000000000000e+00   1.0098110943888479e+00   1.0078298764220166e+00   1.0155632411105511e+00   1.0154292956481694e+00   1.0153109926969608e+00   1.0173055814478149e+00   1.0093729423263069e+00   1.0124652103209266e+00   1.0024160743483805e+00   1.0047187299073546e+00   1.0004610858052840e+00   1.0003394342075733e+00   1.0057749029589389e+00   1.0034092028285104e+00   1.0145555278219911e+00   1.0121722000858235e+00   1.0203739609272033e+00   1.0203739609272033e+00   1.0194821537886802e+00   1.0224405683924629e+00   1.0129050575965270e+00   1.0173070879031019e+00   1.0049636992866053e+00   1.0085033844459892e+00   1.0003853480787073e+00   1.0015701381264566e+00   1.0017161995254986e+00   1.0006832751012584e+00   1.0080893252708771e+00   1.0062628279458350e+00   1.0157936826272329e+00   1.0148459133965018e+00   1.0202398047218573e+00   1.0211900236768339e+00   1.0184577217287665e+00   1.0212994536468352e+00   1.0111816542864007e+00   1.0148608699562858e+00   1.0031654929025640e+00   1.0058696546226880e+00   1.0003089457990701e+00   1.0004999783419195e+00   1.0046780831764031e+00   1.0026083813560107e+00   1.0122886099363928e+00   1.0101989190278526e+00   1.0166880998300130e+00   1.0168850495009776e+00   1.0142099702560894e+00   1.0171620097034535e+00   1.0069395888547215e+00   1.0105968856298573e+00   1.0000000000000000e+00   1.0013304545445552e+00   1.0000000000000000e+00   1.0000000000000000e+00   1.0000000000000000e+00   1.0000000000000000e+00   1.0019857135014965e+00   1.0000000000000000e+00   1.0116451485873452e+00   1.0086304948760441e+00   1.0177167511284850e+00   1.0160558227869252e+00   1.0166535165938884e+00   1.0171322351853662e+00   1.0098713302055258e+00   1.0118288630643739e+00   1.0026056710522280e+00   1.0044263290098883e+00   1.0004545934250921e+00   1.0003466800855878e+00   1.0055425488352214e+00   1.0028445381761839e+00   1.0148903616749545e+00   1.0108410844479072e+00   1.0224405683924620e+00   1.0194821537886789e+00   1.0231943157728924e+00   1.0231943157728922e+00   1.0165499620319305e+00   1.0193194385141293e+00   1.0068559674832092e+00   1.0102000682931205e+00   1.0006752074035583e+00   1.0020866983020973e+00   1.0021672963781045e+00   1.0007718163446022e+00   1.0101031917546968e+00   1.0070466935073763e+00   1.0190528695882566e+00   1.0162614007205604e+00   1.0232839916603405e+00   1.0221692498314865e+00   1.0202398047218613e+00   1.0211900236768356e+00   1.0118589824829958e+00   1.0141810136997507e+00   1.0034193776665572e+00   1.0055315755490111e+00   1.0003268413577069e+00   1.0005219826751222e+00   1.0044182952373801e+00   1.0021321380883303e+00   1.0124424631608138e+00   1.0089896934814195e+00   1.0182176565674532e+00   1.0160313708107924e+00   1.0168548998418971e+00   1.0177059248917506e+00   1.0088444706968249e+00   1.0119431434255781e+00   1.0000000000000000e+00   1.0020003743904027e+00   1.0000000000000000e+00   1.0000000000000000e+00   1.0000000000000000e+00   1.0006663056582377e+00   1.0019325858186816e+00   1.0000000000000000e+00   1.0100893740318273e+00   1.0068729011014814e+00   1.0144707260231154e+00   1.0117860543185184e+00   1.0129454570349601e+00   1.0119767836034970e+00   1.0074047921687537e+00   1.0079488050671561e+00   1.0019545785836241e+00   1.0029363843065913e+00   1.0002703716335570e+00   1.0002184757089914e+00   1.0037287324182596e+00   1.0016214630410005e+00   1.0107073908220201e+00   1.0067106411676447e+00   1.0173070879031005e+00   1.0129050575965259e+00   1.0193194385141295e+00   1.0165499620319300e+00   1.0148981057131774e+00   1.0148981057131778e+00   1.0066492105543641e+00   1.0084764305606071e+00   1.0007228243429680e+00   1.0018740627725302e+00   1.0018496043204341e+00   1.0005062281200239e+00   1.0089092155560695e+00   1.0054246776130700e+00   1.0163269015200065e+00   1.0124058577776525e+00   1.0190528695882561e+00   1.0162614007205608e+00   1.0157936826272245e+00   1.0148459133964918e+00   1.0089358937747932e+00   1.0095633960266071e+00   1.0025765423244666e+00   1.0036792585728735e+00   1.0002014289458714e+00   1.0003531220532573e+00   1.0029239107748120e+00   1.0011867807506942e+00   1.0088699552848879e+00   1.0055085294334791e+00   1.0139710041210614e+00   1.0105466403041137e+00   1.0141377340013618e+00   1.0126486487597823e+00   1.0082495516875571e+00   1.0094423818789955e+00   1.0000000000000000e+00   1.0025114554574730e+00   1.0000000000000000e+00   1.0000000000000000e+00   1.0009375217994179e+00   1.0040463568866940e+00   1.0014535116040997e+00   1.0005436710798068e+00   1.0055935008753114e+00   1.0032445948094184e+00   1.0076137974135595e+00   1.0050238106748000e+00   1.0065873981530327e+00   1.0049924569012583e+00   1.0037000443660407e+00   1.0032640015495951e+00   1.0010041702883472e+00   1.0012388220110435e+00   1.0000899191079968e+00   1.0001034865337308e+00   1.0015703395003039e+00