<?xml version="1.0"?>
<VTKFile type="UnstructuredGrid"  version="0.1"  >
<UnstructuredGrid>
<Piece  NumberOfPoints="961" NumberOfCells="1800">
<Points>
<DataArray  type="Float64"  NumberOfComponents="3"  format="ascii">0 0 0  0.03333333333333333 0 0  0.06666666666666667 0 0  0.1 0 0  0.1333333333333333 0 0  0.1666666666666667 0 0  0.2 0 0  0.2333333333333334 0 0  0.2666666666666667 0 0  0.3 0 0  0.3333333333333333 0 0  0.3666666666666666 0 0  0.4 0 0  0.4333333333333333 0 0  0.4666666666666667 0 0  0.5 0 0  0.5333333333333333 0 0  0.5666666666666667 0 0  0.6 0 0  0.6333333333333333 0 0  0.6666666666666666 0 0  0.7 0 0  0.7333333333333333 0 0  0.7666666666666667 0 0  0.8 0 0  0.8333333333333334 0 0  0.8666666666666667 0 0  0.8999999999999999 0 0  0.9333333333333333 0 0  0.9666666666666668 0 0  1 0 0  0 0.03333333333333333 0  0.03776975339549947 0.03776975339549946 0  0.07259166377915827 0.03658712002658047 0  0.1054688436512684 0.03397098268060991 0  0.1376521356625035 0.03139295190063397 0  0.1697001358355651 0.02929868178611126 0  0.2018046884351445 0.02786561583463159 0  0.233991729319361 0.02719785975922549 0  0.2662099132255736 0.02736121709805383 0  0.2983846454509574 0.02838425484591373 0  0.330466538333419 0.03027050967628662 0  0.3624827740844754 0.03302641530309891 0  0.3946205983202768 0.03667648024332325 0  0.4274146712085988 0.04117903470041773 0  0.4620542228207319 0.04592699195364318 0  0.4997102191659557 0.04840426918130609 0  0.5376290359952547 0.04589236721865655 0  0.572519467415142 0.04106666635364115 0  0.605429419527161 0.03654421339799163 0  0.6376297865739117 0.03290567114394238 0  0.6696875340823369 0.0301744430513704 0  0.7017982549437304 0.02832076569522243 0  0.7339897971188446 0.02733585299627232 0  0.7662119958775452 0.02721264141776088 0  0.7983912403112157 0.02791797769983381 0  0.8304793288372888 0.02938241973802626 0  0.8625053698470383 0.03149937617222985 0  0.8946603841961878 0.03408649343800941 0  0.9274874248936351 0.03668321852316506 0  0.9621957130537773 0.03780428694335788 0  1 0.03333333333333333 0  0 0.06666666666666667 0  0.0365871200265805 0.07259166377915825 0  0.07152390745603869 0.07152390745603865 0  0.1048097794814567 0.06750169597794303 0  0.1372310836026196 0.06292740223497721 0  0.1694030195880695 0.05892688018944234 0  0.2016327660991075 0.05606736394610418 0  0.2339917350290112 0.05468898346655855 0  0.266400451620011 0.05498575941980618 0  0.2987268324263541 0.05700267302179911 0  0.3308965869763947 0.0606563731452644 0  0.3629835382610269 0.06578085579230819 0  0.3952862435370262 0.0721082383565317 0  0.4283982534079109 0.07905492529979737 0  0.463116409780048 0.0851940386504005 0  0.4996567057215842 0.08789875866488416 0  0.5363867843050538 0.08529331975706084 0  0.5714083354335305 0.07908957381925166 0  0.6047423755755345 0.07204989887706641 0  0.6371914889735784 0.0656710966610189 0  0.6693802586314638 0.0605389353778675 0  0.7016210290727769 0.05691195279673022 0  0.7339882000390467 0.05494563834002007 0  0.7664042775123669 0.05470841889519931 0  0.7987388668772517 0.05613712668108811 0  0.8309196582497146 0.05902303400378255 0  0.8630234572757256 0.06301639516122871 0  0.8953539649919997 0.06754332350551076 0  0.9285140577612931 0.07148594223769578 0  0.9633167814787506 0.07251257510147666 0  1 0.06666666666666667 0  0 0.1 0  0.03397098268060991 0.1054688436512684 0  0.06750169597794306 0.1048097794814566 0  0.1005238669408168 0.1005238669408168 0  0.1333425998197672 0.09482047380222572 0  0.1663146106596997 0.08928479823485144 0  0.1996573251829266 0.08503226932686545 0  0.2333633904904236 0.08286330082457509 0  0.2671988509144494 0.08324823208773763 0  0.300833215199958 0.08622888892489702 0  0.3340516503563246 0.09145123168560715 0  0.3668645195056612 0.09831094648383538 0  0.3994994355123993 0.1060094046475701 0  0.4323291124750093 0.1134550467395079 0  0.4657115030718657 0.1191426125674322 0  0.499689633302359 0.121385760172659 0  0.5337687428369866 0.1192887877196029 0  0.5673740666349386 0.1136216960981737 0  0.6004445317423611 0.1060994374450183 0  0.6332940009175401 0.09830433928996112 0  0.6662859297264437 0.09137933843727537 0  0.6996423117114862 0.08614477203238148 0  0.7333588516617117 0.08320271359705794 0  0.7672038087504836 0.08287871979136396 0  0.80084863522836 0.08508713156344182 0  0.8340807067818063 0.08932956227502213 0  0.8669134251087663 0.09480469363345062 0  0.8995789365570827 0.1004210634422723 0  0.9324566764941311 0.1046460350070513 0  0.9659135065622424 0.1053396158023539 0  1 0.1 0  0 0.1333333333333333 0  0.03139295190063398 0.1376521356625035 0  0.06292740223497724 0.1372310836026196 0  0.09482047380222577 0.1333425998197672 0  0.1274239872772187 0.1274239872772187 0  0.1611013067451006 0.1209442537372393 0  0.1960560724177801 0.115423345972733 0  0.2321166175717285 0.1123513180415352 0  0.2685859420014194 0.1127658732240892 0  0.3045038982493444 0.1166784685504921 0  0.3392470747656021 0.1231478187721842 0  0.3727067625629046 0.1308927439194835 0  0.4051195018670272 0.1386827407745911 0  0.4368677517933224 0.1454070070944629 0  0.4683270991052662 0.150049102642484 0  0.499747803903983 0.1517763365536025 0  0.5312191948885002 0.1502140172198355 0  0.5628114396864219 0.1456604804274242 0  0.5947447785228097 0.1389254834874308 0  0.6273757547123523 0.1310483206180398 0  0.6610719814596535 0.1231894407978354 0  0.6960404142996434 0.116640700824264 0  0.732111865474373 0.1127250371374918 0  0.7685912338768757 0.1123532978557342 0  0.8045200552298255 0.1154249443180721 0  0.8392768194077574 0.1208714372122529 0  0.8727552880912443 0.1272447119080093 0  0.9051953063660134 0.1330865748906021 0  0.9369836048384756 0.1369765427236275 0  0.9685006238277044 0.1374946301523422 0  1 0.1333333333333333 0  0 0.1666666666666667 0  0.02929868178611126 0.169700135835565 0  0.05892688018944235 0.1694030195880695 0  0.08928479823485146 0.1663146106596996 0  0.1209442537372393 0.1611013067451005 0  0.1546359560372993 0.1546359560372993 0  0.1910539002045759 0.1483065097436656 0  0.2302244175721251 0.1442758484314591 0  0.270568215449631 0.1446428548143318 0  0.3094792691218186 0.1493583186228542 0  0.3456100880867322 0.1564214822642434 0  0.379089446210096 0.1639020743789109 0  0.4106111276511342 0.1706225272782262 0  0.4408889459499104 0.1759144718023994 0  0.4704894174952364 0.1793370712007338 0  0.4998179466154065 0.1805817844697084 0  0.5291703729869877 0.1795148197954365 0  0.5588388365484938 0.1762273054161269 0  0.5892256622132127 0.1709982477722594 0  0.6209054897727413 0.1642517709884727 0  0.6546117177327607 0.1566563911205282 0  0.6910406365681661 0.1494352280773496 0  0.7302203857476447 0.14462584231238 0  0.7705729115127151 0.1442457019726043 0  0.8094931280268634 0.1481872569190862 0  0.8456348170531967 0.154365182945393 0  0.8791285627868552 0.1607231805914515 0  0.9106704377244705 0.1659192932176271 0  0.9409769659959322 0.1690803417498064 0  0.9706175802618754 0.1695206711623908 0  1 0.1666666666666667 0  0 0.2 0  0.02786561583463156 0.2018046884351444 0  0.05606736394610415 0.2016327660991074 0  0.08503226932686542 0.1996573251829265 0  0.1154233459727329 0.19605607241778 0  0.1483065097436655 0.1910539002045759 0  0.1852750951206122 0.1852750951206122 0  0.2276879306871538 0.1807518431093854 0  0.2730704833411025 0.1809402903254663 0  0.3150931890372482 0.1857693206366761 0  0.3517985695281918 0.1919658019443096 0  0.3845529924814184 0.1976525201845875 0  0.4148795212611255 0.2022707926714425 0  0.443813297664507 0.2056787785288283 0  0.4720095972104315 0.2078059938172997 0  0.4998964780808987 0.2085891105961245 0  0.5277931351630827 0.2079932344649386 0  0.5560178863140208 0.2060314862721306 0  0.5849992292330854 0.2027478798216546 0  0.6154017777908395 0.1981913188302434 0  0.6482929736457904 0.1924688501312386 0  0.6852675785299097 0.1860962142104131 0  0.7276857137124841 0.1810095392007853 0  0.7730735113001285 0.1806273497630418 0  0.8151014433845509 0.1848985566105702 0  0.8518127430783629 0.1905068719719229 0  0.8845750556809524 0.1954799447695552 0  0.914912868436124 0.1991513647711939 0  0.943862873318728 0.2012611331224342 0  0.9720820223001123 0.2016087596886124 0  1 0.2 0  0 0.2333333333333334 0  0.02719785975922547 0.2339917293193609 0  0.05468898346655852 0.2339917350290111 0  0.08286330082457505 0.2333633904904235 0  0.1123513180415352 0.2321166175717284 0  0.144275848431459 0.2302244175721251 0  0.1807518431093853 0.2276879306871539 0  0.2250914174355164 0.2250914174355165 0  0.2752942482352435 0.2248510849593485 0  0.319373158281523 0.2272765469230536 0  0.3557550256092759 0.229976538265501 0  0.3876468551029792 0.2321961595564934 0  0.4171196778233615 0.2338985120483197 0  0.445286569815739 0.2351280728588774 0  0.4727766987679559 0.2359057434336846 0  0.4999807656203696 0.2362307945316713 0  0.5271872093076331 0.2360965254552793 0  0.5546841734064166 0.235498603601302 0  0.5828621401775749 0.2344287381985334 0  0.6123521359078702 0.2328571243714684 0  0.644277422189851 0.2307189887993094 0  0.6807533216110251 0.227977408498858 0  0.7250922984107555 0.2251732357111401 0  0.7752943872716422 0.2247056126796794 0  0.819372650216887 0.2269264887049526 0  0.8557542980248162 0.2294270884877194 0  0.8876467021438504 0.2314087661229713 0  0.9171212802086057 0.2327961912493311 0  0.9452915811048455 0.2335957224874732 0  0.9727873585822723 0.2337880041223574 0  1 0.2333333333333334 0  0 0.2666666666666667 0  0.02736121709805382 0.2662099132255735 0  0.05498575941980615 0.2664004516200109 0  0.08324823208773754 0.2671988509144493 0  0.1127658732240892 0.2685859420014194 0  0.1446428548143318 0.2705682154496311 0  0.1809402903254663 0.2730704833411026 0  0.2248510849593485 0.2752942482352437 0  0.2748300808365225 0.2748300808365226 0  0.3190009586513725 0.2720282410897898 0  0.3553912112304146 0.2692876751829678 0  0.3872989068163499 0.2671495039685223 0  0.4168291808029184 0.2655769386598796 0  0.445095833247835
[...]
<CellData  Scalars="q"> 
<DataArray  type="Float64"  Name="q"  format="ascii">1.0060433775701645e+00   1.0060433775701645e+00   1.0000000000000000e+00   1.0000000000000000e+00   1.0000000000000000e+00   1.0000000000000000e+00   1.0000000000000000e+00   1.0000000000000000e+00   1.0014259215056209e+00   1.0000000000000000e+00   1.0110516404700560e+00   1.0032181504582693e+00   1.0175766059184057e+00   1.0123245134198731e+00   1.0174441787733453e+00   1.0158844606303254e+00   1.0104853911081495e+00   1.0118544246855306e+00   1.0002096741761679e+00   1.0022365300164262e+00   1.0000000000000000e+00   1.0000000000000000e+00   1.0000000000000000e+00   1.0000000000000000e+00   1.0046884656627080e+00   1.0000000000000000e+00   1.0277838498005503e+00   1.0022102457007187e+00   1.0474281857429122e+00   1.0210302678161285e+00   1.0383874751612110e+00   1.0281257711504197e+00   1.0128362603931680e+00   1.0118135505345089e+00   1.0000000000000000e+00   1.0000000000000000e+00   1.0000000000000000e+00   1.0000000000000000e+00   1.0000000000000000e+00   1.0000000000000000e+00   1.0078355018145784e+00   1.0000000000000000e+00   1.0161241194461834e+00   1.0099501554625356e+00   1.0182236488900569e+00   1.0155739717039309e+00   1.0132528359511006e+00   1.0136782777031050e+00   1.0040247817411929e+00   1.0056210172010063e+00   1.0000000000000000e+00   1.0000000000000000e+00   1.0000000000000000e+00   1.0000000000000000e+00   1.0000000000000000e+00   1.0000000000000000e+00   1.0095592319285687e+00   1.0000000000000000e+00   1.0014242356905110e+00   1.0101438006726466e+00   1.0000000000000000e+00   1.0000000000000000e+00   1.0001709956676410e+00   1.0001709956676410e+00   1.0000000000000000e+00   1.0078703982431374e+00   1.0000000000000000e+00   1.0071866257452633e+00   1.0000000000000000e+00   1.0054761076833820e+00   1.0043874537641087e+00   1.0068174051819943e+00   1.0108909618689550e+00   1.0101293371209934e+00   1.0129573602320050e+00   1.0123721229424656e+00   1.0095239475669815e+00   1.0118373369057418e+00   1.0032885841425521e+00   1.0098182906710669e+00   1.0000000000000000e+00   1.0093773905029815e+00   1.0000000000000000e+00   1.0121409344810908e+00   1.0011382602669074e+00   1.0153630385332715e+00   1.0013467320320433e+00   1.0124421803402019e+00   1.0024712350284644e+00   1.0023380090861329e+00   1.0097689107998293e+00   1.0031293155157139e+00   1.0102142519375170e+00   1.0155195961344958e+00   1.0013840477580818e+00   1.0186314152055678e+00   1.0000000000000000e+00   1.0118972138398106e+00   1.0000000000000000e+00   1.0062530940360692e+00   1.0018485815549067e+00   1.0057953991094180e+00   1.0092617095528338e+00   1.0089359411587213e+00   1.0128456160229915e+00   1.0119385086247030e+00   1.0108010325176069e+00   1.0122773094100350e+00   1.0051603486868521e+00   1.0104346102617110e+00   1.0000000000000000e+00   1.0088396541448390e+00   1.0000000000000000e+00   1.0087447679162098e+00   1.0000000000000000e+00   1.0078820221302418e+00   1.0007842745021200e+00   1.0019438593467305e+00   1.0095592319259434e+00   1.0000000000000000e+00   1.0000000000000000e+00   1.0000000000000000e+00   1.0078703982431374e+00   1.0000000000000000e+00   1.0310776678334836e+00   1.0310776678334836e+00   1.0344929169686234e+00   1.0446323850173771e+00   1.0271226348621665e+00   1.0406766154039511e+00   1.0185560372732023e+00   1.0282924947875947e+00   1.0133656096843100e+00   1.0171100042045249e+00   1.0128390973641173e+00   1.0129050703380544e+00   1.0170725439282498e+00   1.0177573437565699e+00   1.0256620772338996e+00   1.0302786569670277e+00   1.0367262556273125e+00   1.0459277797902307e+00   1.0452646234047351e+00   1.0573663348437936e+00   1.0430426803340618e+00   1.0559080011350725e+00   1.0248688399715631e+00   1.0366778455104855e+00   1.0031630535476852e+00   1.0098703260879072e+00   1.0074998970274103e+00   1.0031312727196549e+00   1.0353780835307695e+00   1.0295790852337627e+00   1.0513123978997154e+00   1.0574550755411274e+00   1.0461319628607926e+00   1.0626782955505738e+00   1.0325758622558163e+00   1.0506065723586682e+00   1.0204950763985812e+00   1.0329211335083968e+00   1.0137296283072805e+00   1.0187407970682156e+00   1.0125423524610975e+00   1.0128723001449800e+00   1.0159357341109443e+00   1.0162449805235370e+00   1.0224996387555656e+00   1.0263349743353172e+00   1.0296093087981457e+00   1.0377020070707399e+00   1.0317649425651751e+00   1.0425617345579099e+00   1.0222500032183883e+00   1.0330850324381200e+00   1.0000000000000000e+00   1.0078820221242184e+00   1.0000000000000000e+00   1.0000000000000000e+00   1.0000000000000000e+00   1.0000000000000000e+00   1.0071866257452635e+00   1.0000000000000000e+00   1.0446323850173771e+00   1.0344929169686234e+00   1.0627791621469613e+00   1.0627791621469613e+00   1.0575639145983289e+00   1.0691951146282239e+00   1.0375869933997746e+00   1.0520196675850058e+00   1.0189718825288152e+00   1.0273679124261823e+00   1.0153846011435002e+00   1.0151567065425078e+00   1.0299079923159984e+00   1.0260149031275534e+00   1.0539187019704808e+00   1.0525628916864764e+00   1.0741830715793965e+00   1.0774005933716659e+00   1.0790693065867483e+00   1.0858881545970529e+00   1.0626997539756899e+00   1.0721043670783725e+00   1.0306703296881854e+00   1.0412053702812791e+00   1.0047805385179331e+00   1.0106090116727413e+00   1.0098823280079734e+00   1.0036939381826173e+00   1.0426525736995558e+00   1.0287335003821549e+00   1.0742205878471767e+00   1.0655886645854331e+00   1.0839892161210924e+00   1.0886918800164249e+00   1.0702567509082186e+00   1.0860917384421156e+00   1.0440833973776691e+00   1.0617706859860312e+00   1.0212744905247513e+00   1.0317597651227213e+00   1.0145450267603033e+00   1.0154977275938288e+00   1.0257897263624596e+00   1.0225333424854670e+00   1.0452722483161274e+00   1.0444120863136819e+00   1.0590454833559801e+00   1.0630118589019282e+00   1.0556010727781049e+00   1.0637756113772723e+00   1.0317649425646653e+00   1.0425617345573646e+00   1.0000000000000000e+00   1.0087447679161881e+00   1.0000000000000000e+00   1.0000000000000000e+00   1.0000000000000000e+00   1.0014259215056209e+00   1.0054761076833820e+00   1.0000000000000000e+00   1.0406766154039515e+00   1.0271226348621667e+00   1.0691951146282241e+00   1.0575639145983295e+00   1.0750707490879006e+00   1.0750707490879008e+00   1.0547599213267671e+00   1.0652250113171804e+00   1.0254314581373287e+00   1.0354405682036327e+00   1.0172615085347445e+00   1.0158781535445560e+00   1.0394815633503989e+00   1.0302093881560848e+00   1.0709471454266131e+00   1.0628997898791677e+00   1.0885862772505057e+00   1.0846791286529716e+00   1.0828391292705266e+00   1.0828492023762160e+00   1.0573178674798469e+00   1.0610483177070962e+00   1.0249936877600154e+00   1.0310010312973517e+00   1.0035143200289691e+00   1.0071115958794166e+00   1.0062630041961649e+00   1.0016825101113733e+00   1.0325519828967560e+00   1.0185087583121484e+00   1.0675589817534903e+00   1.0496667456029103e+00   1.0918011547949358e+00   1.0796520392169788e+00   1.0909103392140314e+00   1.0918580318318056e+00   1.0643167718147046e+00   1.0766605423617650e+00   1.0293864191052391e+00   1.0413808396202604e+00   1.0161609404771135e+00   1.0165438015517749e+00   1.0335255714849594e+00   1.0257806140635573e+00   1.0596397450217734e+00   1.0534169240261926e+00   1.0710736591844725e+00   1.0699437647773848e+00   1.0590454833562402e+00   1.0630118589028994e+00   1.0296093087981371e+00   1.0377020070712857e+00   1.0000000000000000e+00   1.0088396541452802e+00   1.0000000000000000e+00   1.0000000000000000e+00   1.0032181504582693e+00   1.0110516404700562e+00   1.0068174051819940e+00   1.0043874537641087e+00   1.0282924947875949e+00   1.0185560372732023e+00   1.0520196675850060e+00   1.0375869933997748e+00   1.0652250113171799e+00   1.0547599213267669e+00   1.0546609431930842e+00   1.0546609431930838e+00   1.0244892891766109e+00   1.0304357127073802e+00   1.0129301668146868e+00   1.0093085411764418e+00   1.0361431733708022e+00   1.0221587742008773e+00   1.0635854560026119e+00   1.0497944467834317e+00   1.0714644523433030e+00   1.0614453745343897e+00   1.0590551202464034e+00   1.0533144463561683e+00   1.0363839369732630e+00   1.0350211737002348e+00   1.0144350905132786e+00   1.0162156723646172e+00   1.0016112676584363e+00   1.0034133439544355e+00   1.0025961617876569e+00   1.0003061869518404e+00   1.0174551730976256e+00   1.0080693871798672e+00   1.0413733596649537e+00   1.0250591055766081e+00   1.0651393938081128e+00   1.0463169069435081e+00   1.0763423588379784e+00   1.0630530831365621e+00   1.0628892917010473e+00   1.0619733879787874e+00   1.0284792481386371e+00   1.0351316512471471e+00   1.0119187747755425e+00   1.0099668613372235e+00   1.0307959015200847e+00   1.0187252620928331e+00   1.0546976851172363e+00   1.0434949095784387e+00   1.0596397450197517e+00   1.0534169240314784e+00   1.0452722483177450e+00   1.0444120863123647e+00   1.0224996387562753e+00   1.0263349743364465e+00   1.0051603486875398e+00   1.0104346102623623e+00   1.0040247817416925e+00   1.0056210172012552e+00   1.0123245134198731e+00   1.0175766059184057e+00   1.0101293371209934e+00   1.0108909618689550e+00   1.0171100042045247e+00   1.0133656096843098e+00   1.0273679124261825e+00   1.0189718825288154e+00   1.0354405682036323e+00   1.0254314581373289e+00   1.0304357127073800e+00   1.0244892891766106e+00   1.0125422337891352e+00   1.0125422337891352e+00   1.0028604351009731e+00   1.0018291293809996e+00   1.0163459472344099e+00   1.0048052536401759e+00   1.0330130102012003e+00   1.0190641558015625e+00   1.0348701107982070e+00   1.0244040638066778e+00   1.0257750040316127e+00   1.0192458419275661e+00   1.0142727863198180e+00   1.0111799146495626e+00   1.0053502384548278e+00   1.0047429614591454e+00   1.0006603868405026e+00   1.0011216468168169e+00   1.0005526351343375e+00   1.0000796431927508e+00   1.0053021218819624e+00   1.0016668717605621e+00   1.0148117496189575e+00   1.0065029744338776e+00   1.0270396358163916e+00   1.0144534474233504e+00   1.0365771674197695e+00   1.0227703314127361e+00   1.0327334251899685e+00   1.0240145907737874e+00   1.0144739657841493e+00   1.0134642764176456e+00   1.0025981551680845e+00   1.0022303334289195e+00   1.0142880893624293e+00   1.0040633961334477e+00   1.0307959015007409e+00   1.0187252621221501e+00   1.0335255714916924e+00   1.0257806140359482e+00   1.0257897263618507e+00   1.0225333424889107e+00   1.0159357341120001e+00   1.0162449805247533e+00   1.0108010325180605e+00   1.0122773094106481e+00   1.0132528359510728e+00   1.0136782777033748e+00   1.0158844606303257e+00   1.0174441787733455e+00   1.0123721229424654e+00   1.0129573602320050e+00   1.0129050703380544e+00   1.0128390973641173e+00   1.0151567065425082e+00   1.0153846011435002e+00   1.0158781535445565e+00   1.0172615085347450e+00   1.0093085411764420e+00   1.0129301668146873e+00   1.0018291293809996e+00   1.0028604351009733e+00   1.0006935908816295e+00   1.0006935908816295e+00   1.0019061037971952e+00   1.0020602158214342e+00   1.0090047177244899e+00   1.0078867274910046e+00   1.0105041049887959e+00   1.0116699374623608e+00   1.0066421191318158e+00   1.0083050170975234e+00   1.0027541205460944e+00   1.0037888274468494e+00   1.0007968243620557e+00   1.0010258251034552e+00   1.0002535309171694e+00   1.0001720486248455e+00   1.0002525720765987e+00   1.0002894653266232e+00   1.0010113292256861e+00   1.0011227266986720e+00   1.0035186669559262e+00   1.0034487617415835e+00   1.0077308075187836e+00   1.0076783942911567e+00   1.0108804662610322e+00   1.0117415407080872e+00   1.0071732533737494e+00   1.0100746576780693e+00   1.0016427013999312e+00   1.0021880504915233e+00   1.0007509016725122e+00   1.0006382138728318e+00   1.0025981551916807e+00   1.0022303334331122e+00   1.0119187747620819e+00   1.0099668612957344e+00   1.0161609404657166e+00   1.0165438015810593e+00   1.0145450267638152e+00   1.0154977275981019e+00   1.0125423524620838e+00   1.0128723001466537e+00   1.0128456160237493e+00   1.0119385086259167e+00   1.0182236488905214e+00   1.0155739717046799e+00   1.0118544246855310e+00   1.0104853911081495e+00   1.0118373369057418e+00   1.0095239475669815e+00   1.0177573437565706e+00   1.0170725439282502e+00   1.0260149031275536e+00   1.0299079923159991e+00   1.0302093881560856e+00   1.0394815633503998e+00   1.0221587742008778e+00   1.0361431733708031e+00   1.0048052536401761e+00   1.0163459472344103e+00   1.0020602158214342e+00   1.0019061037971950e+00   1.0155242103412796e+00   1.0155242103412796e+00   1.0283694583370102e+00   1.0378409694779953e+00   1.0274657012890329e+00   1.0434114431771184e+00   1.0180549715516150e+00   1.0330137860680151e+00   1.0085170011542148e+00   1.0187026146760305e+00   1.0022809692839771e+00   1.0069776715515839e+00   1.0000230546337936e+00   1.0007879612606154e+00   1.0013924996183639e+00   1.0008052171667816e+00   1.0062105952375373e+00   1.0067959163603575e+00   1.0142648122191349e+00   1.0179072690753708e+00   1.0237551878284978e+00   1.0316332708125759e+00   1.0294031081506654e+00   1.0418886229202013e+00   1.0227446291760611e+00   1.0388779186999217e+00   1.0056188403723587e+00   1.0185950948958900e+00   1.0016427013963143e+00   1.0021880505179834e+00   1.0144739658184274e+00   1.0134642764486117e+00   1.0284792481202107e+00   1.0351316513358642e+00   1.0293864191361790e+00   1.0413808396838085e+00   1.0212744905253421e+00   1.0317597651193746e+00   1.0137296283093262e+00   1.0187407970734064e+00   1.0092617095539320e+00   1.0089359411592909e+00   1.0161241194471637e+00   1.0099501554633292e+00   1.0022365300164264e+00   1.0002096741761681e+00   1.0098182906710664e+00   1.0032885841425518e+00   1.0302786569670284e+00   1.0256620772338993e+00   1.0525628916864773e+00   1.0539187019704821e+00   1.0628997898791686e+00   1.0709471454266137e+00   1.0497944467834326e+00   1.0635854560026130e+00   1.0190641558015630e+00   1.0330130102012007e+00   1.0078867274910046e+00   1.0090047177244905e+00   1.0378409694779949e+00   1.0283694583370093e+00   1.0712393059505050e+00   1.0712393059505045e+00   1.0745576939965003e+00   1.0898471973405168e+00   1.0559875111768917e+00   1.0783258937060465e+00   1.0310142034903722e+00   1.0506945705944939e+00   1.0104673202531900e+00   1.0221035881163592e+00   1.0008443311060888e+00   1.0040501105727644e+00   1.0045549709000068e+00   1.0027188461862770e+00   1.0201556078148069e+00   1.0181904414071963e+00   1.0427620964100539e+00   1.0446253370783565e+00   1.0640935693800195e+00   1.0714805693103278e+00   1.0724697984449179e+00   1.0851747681926183e+00   1.0568292831901087e+00   1.0737372848477860e+00   1.0227446292197255e+00   1.0388779186770578e+00   1.0071732533427418e+00   1.0100746576768018e+00   1.0327334252799829e+00   1.0240145907470950e+00   1.0628892919053783e+00   1.0619733881955025e+00   1.0643167718702107e+00   1.0766605423375111e+00   1.0440833973858421e+00   1.0617706859976213e+00   1.0204950764020342e+00   1.0329211335132344e+00   1.0018485815549603e+00   1.0057953991090374e+00   1.0078355018153982e+00   1.0000000000000000e+00   1.0000000000000000e+00   1.0000000000000000e+00   1.0093773905029813e+00   1.0000000000000000e+00   1.0459277797902302e+00   1.0367262556273114e+00   1.0774005933716673e+00   1.0741830715793974e+00   1.0846791286529720e+00   1.0885862772505066e+00   1.0614453745343899e+00   1.0714644523433030e+00   1.0244040638066780e+00   1.0348701107982068e+00   1.0116699374623610e+00   1.0105041049887964e+00   1.0434114431771180e+00   1.0274657012890329e+00   1.0898471973405175e+00   1.0745576939965014e+00   1.1114127323005747e+00   1.1114127323005765e+00   1.0981780089133122e+00   1.1147249613858838e+00   1.0623024309321569e+00   1.0856036504432613e+00   1.0245868341147775e+00   1.0427942898790268e+00   1.0040946514922642e+00   1.0105810951155645e+00   1.0105164022265738e+00   1.0069799592776747e+00   1.0394979464136234e+00   1.0330942258555909e+00   1.0761288216554967e+00   1.0730454285608737e+00   1.1021858774003568e+00   1.1046596358959091e+00   1.1024376445743655e+00   1.1104569537097424e+00   1.0724697984527238e+00   1.0851747681906021e+00   1.0294031081228814e+00   1.0418886229308331e+00   1.0108804662776922e+00   1.0117415406967381e+00   1.0365771674785407e+00   1.0227703314275112e+00   1.0763423588285257e+00   1.0630530832109217e+00   1.0909103391451951e+00   1.0918580317582804e+00   1.0702567509127296e+00   1.0860917384654885e+00   1.0325758622593582e+00   1.0506065723585030e+00   1.0000000000000000e+00   1.0062530940368384e+00   1.0000000000000000e+00   1.0000000000000000e+00   1.0000000000000000e+00   1.0000000000000000e+00   1.0121409344810917e+00   1.0000000000000000e+00   1.0573663348437932e+00   1.0452646234047358e+00   1.0858881545970529e+00   1.0790693065867476e+00   1.0828492023762168e+00   1.0828391292705275e+00   1.0533144463561679e+00   1.0590551202464034e+00   1.0192458419275656e+00   1.0257750040316123e+00   1.0083050170975234e+00   1.0066421191318153e+00   1.0330137860680155e+00   1.0180549715516156e+00   1.0783258937060500e+00   1.0559875111768937e+00   1.1147249613858876e+00   1.0981780089133175e+00   1.1193504509976069e+00   1.1193504509976087e+00   1.0885330048586841e+00   1.1047534854454177e+00   1.0409118150832470e+00   1.0610200633115978e+00   1.0095276586572961e+00   1.0184069819940600e+00   1.0180725920914551e+00   1.0121255663759661e+00   1.0571478733704787e+00   1.0457803288449969e+00   1.0979166904564719e+00   1.0894332599602718e+00   1.1159947951902720e+00   1.1128453858961529e+00   1.1021858774024347e+00   1.1046596358973455e+00   1.0640935693795806e+00   1.0714805693136673e+00   1.0237551878330744e+00   1.0316332708129596e+00   1.0077308075223121e+00   1.0076783942939003e+00   1.0270396358155474e+00   1.0144534474219149e+00   1.0651393938218316e+00   1.0463169069569340e+00   1.0918011548131037e+00   1.0796520392173310e+00   1.0839892161179470e+00   1.0886918800127774e+00   1.0461319628766632e+00   1.0626782955494098e+00   1.0000000000000000e+00   1.0118972138537436e+00   1.0000000000000000e+00   1.0000000000000000e+00   1.0000000000000000e+00   1.0046884656627086e+00   1.0153630385332719e+00   1.0011382602669077e+00   1.0559080011350741e+00   1.0430426803340636e+00   1.0721043670783721e+00   1.0626997539756906e+00   1.0610483177070962e+00   1.0573178674798465e+00   1.0350211737002353e+00   1.0363839369732633e+00   1.0111799146495617e+00   1.0142727863198178e+00   1.0037888274468494e+00   1.0027541205460941e+00   1.0187026146760312e+00   1.0085170011542155e+00   1.0506945705944959e+00   1.0310142034903731e+00   1.0856036504432647e+00   1.0623024309321589e+00   1.1047534854454195e+00   1.0885330048586861e+00   1.0930584918836148e+00   1.0930584918836148e+00   1.0507357689950512e+00   1.0643319015495429e+00   1.0131118177373741e+00   1.0213667455147133e+00   1.0217224793195143e+00   1.0127339511207920e+00   1.0618916618214400e+00   1.0461165863368387e+00   1.0940530802041228e+00   1.0807888977363809e+00   1.0979166904577795e+00   1.0894332599633816e+00   1.0761288216580003e+00   1.0730454285632378e+00   1.0427620964127140e+00   1.0446253370807257e+00   1.0142648122212237e+00   1.0179072690773889e+00   1.0035186669563534e+00   1.0034487617422863e+00   1.0148117496223967e+00   1.0065029744343867e+00   1.0413733596720882e+00   1.0250591055809442e+00   1.0675589817541560e+00   1.0496667456090556e+00   1.0742205878556776e+00   1.0655886646121253e+00   1.0513123979238213e+00   1.0574550755708314e+00   1.0013840477737499e+00   1.0186314152349174e+00   1.0000000000000000e+00   1.0000000000000000e+00   1.0022102457007200e+00   1.0277838498005512e+00   1.0124421803402024e+00   1.0013467320320442e+00   1.0366778455104875e+00   1.0248688399715642e+00   1.0412053702812796e+00   1.0306703296881869e+00   1.0310010312973508e+00   1.0249936877600150e+00   1.0162156723646170e+00   1.0144350905132777e+00   1.0047429614591452e+00   1.0053502384548278e+00   1.0010258251034552e+00   1.0007968243620557e+00   1.0069776715515846e+00