<?xml version="1.0"?>
<VTKFile type="UnstructuredGrid"  version="0.1"  >
<UnstructuredGrid>
<Piece  NumberOfPoints="961" NumberOfCells="1800">
<Points>
<DataArray  type="Float64"  NumberOfComponents="3"  format="ascii">0 0 0  0.03333333333333333 0 0  0.06666666666666667 0 0  0.1 0 0  0.1333333333333333 0 0  0.1666666666666667 0 0  0.2 0 0  0.2333333333333333 0 0  0.2666666666666667 0 0  0.3 0 0  0.3333333333333333 0 0  0.3666666666666666 0 0  0.4 0 0  0.4333333333333333 0 0  0.4666666666666666 0 0  0.5 0 0  0.5333333333333333 0 0  0.5666666666666667 0 0  0.6 0 0  0.6333333333333333 0 0  0.6666666666666666 0 0  0.7 0 0  0.7333333333333333 0 0  0.7666666666666667 0 0  0.8 0 0  0.8333333333333334 0 0  0.8666666666666667 0 0  0.9 0 0  0.9333333333333333 0 0  0.9666666666666667 0 0  1 0 0  0 0.03333333333333333 0  0.04060493564104901 0.04060493564104902 0  0.07470644169689927 0.03790172594572459 0  0.1066702770923283 0.03425315994991249 0  0.1382741583273397 0.0310822588628929 0  0.1699959735752641 0.02862494999439357 0  0.2019331252146956 0.02697311454180841 0  0.2340428730930349 0.02621208051979706 0  0.2662133176071007 0.02641339444750604 0  0.2983098409134231 0.02761417220955226 0  0.3302257712655778 0.02983525735042805 0  0.3619257654794347 0.03314578995233991 0  0.3935143459438827 0.03775567760426005 0  0.4254626500775048 0.04409864312929867 0  0.4593970229650079 0.05247642036934991 0  0.4992398711877404 0.05906402179948897 0  0.5403267841804595 0.05275132460057236 0  0.5745867655137543 0.04405102179551315 0  0.606611499469063 0.03763393009761427 0  0.6382430038030807 0.03302443418312143 0  0.6699791700524069 0.02973551912396787 0  0.7019248084167589 0.02754618426698667 0  0.7340404726835287 0.0263841092758579 0  0.7662161123376127 0.02622406422780258 0  0.798318597532926 0.02702272173161829 0  0.8302431330765259 0.02870373443742229 0  0.8619577528771269 0.0311776649873636 0  0.8935746216251325 0.034340161962438 0  0.9255855980602417 0.03790428652817995 0  0.9596830418130083 0.0403169578498336 0  1 0.03333333333333333 0  0 0.06666666666666667 0  0.03790172594572459 0.0747064416968993 0  0.07291393799013371 0.07291393799013371 0  0.105734296872371 0.06774266036940223 0  0.1376897911673065 0.06223053551279941 0  0.1695577039063373 0.05753925708590978 0  0.2016587531675504 0.05421637737508066 0  0.2340213247443036 0.0526228038739304 0  0.2664822369556757 0.0529907110411559 0  0.2988056830428751 0.05537712414795106 0  0.3308402267301105 0.05969473785653604 0  0.3626226069736022 0.0658173806393107 0  0.3944645400141621 0.07361227589734681 0  0.4270987359238945 0.08270417858336582 0  0.461785194326171 0.09158774753316595 0  0.4994584677137282 0.09611225739556814 0  0.5375932983595213 0.09190943130570417 0  0.5727451663080634 0.08287000069195817 0  0.6056405624258019 0.07360399285478159 0  0.6376368765731464 0.06572058553650074 0  0.6695282237670619 0.05957440231701371 0  0.7016439282337076 0.05527758745360167 0  0.7340170325546618 0.05294231822428182 0  0.7664872821982043 0.05263740474784932 0  0.7988213141531874 0.05428130616198013 0  0.8308706363368232 0.05762339739748561 0  0.8626766810238126 0.06228962083929279 0  0.8945598222987946 0.06771552540953155 0  0.9272695444199425 0.07273045528272026 0  0.9620957131930018 0.07441440181472231 0  1 0.06666666666666667 0  0 0.1 0  0.0342531599499125 0.1066702770923283 0  0.06774266036940221 0.105734296872371 0  0.1005017105847841 0.1005017105847841 0  0.1330424620254252 0.09370424550245522 0  0.165871016784818 0.08715609535715299 0  0.1992833960021738 0.08210937594541136 0  0.2332684255314487 0.07951949174090256 0  0.2674706386177111 0.08000219737001622 0  0.3013604176250249 0.08360467486264299 0  0.3346189562202142 0.08985916861493191 0  0.3672614169416481 0.09806561951621594 0  0.3995904244476028 0.107381222719392 0  0.4321154421266604 0.1166328266204587 0  0.4653922178839841 0.123997170211877 0  0.499602438920452 0.1270611581914397 0  0.5339860751282328 0.1242619449922888 0  0.5675745860702668 0.116921661994118 0  0.6003989195872512 0.1075489659187394 0  0.6329807847938903 0.09809253644774922 0  0.6658353640551438 0.08978939222763666 0  0.6992651037693541 0.08350606324384091 0  0.7332631217840297 0.07994206420327014 0  0.767477008721739 0.07953036734626957 0  0.8013798011149319 0.08215964547159846 0  0.8346557461163138 0.08717973406061004 0  0.8673242748782721 0.09363658105111843 0  0.8996943713126148 0.1003056281269018 0  0.9322844741898714 0.1054401773476813 0  0.965659837804403 0.1064253782151712 0  1 0.09999999999999999 0  0 0.1333333333333333 0  0.03108225886289289 0.1382741583273398 0  0.0622305355127994 0.1376897911673065 0  0.09370424550245519 0.1330424620254252 0  0.1259772887783809 0.125977288778381 0  0.1595708863768129 0.118144402773604 0  0.1948526678173275 0.1113149525535463 0  0.2317240085532289 0.1074079383759803 0  0.269244647941708 0.1079439802065116 0  0.3059042237986884 0.1129082246612568 0  0.3409024371205257 0.1209034305598192 0  0.3742258473795591 0.1302875484682898 0  0.4062712421755121 0.1396474341400659 0  0.4375695717926449 0.1477557087300458 0  0.4686144050843639 0.1534289211542948 0  0.4997084168322403 0.1555835621606949 0  0.530874533659291 0.1536659149206286 0  0.5620903542881529 0.1481121192375964 0  0.5936130370871027 0.1399858437308552 0  0.6259198299495288 0.1305064332720213 0  0.659536469372638 0.1209631190101091 0  0.6948346083039172 0.1128488442238741 0  0.7317187962059548 0.1078757565013781 0  0.7692512101642335 0.1074120426761965 0  0.8059236095531919 0.1113143481512361 0  0.8409381317693619 0.1180316582916339 0  0.8742844802084888 0.1257155186725118 0  0.9063634181645165 0.1326757244418706 0  0.9377103786773688 0.1373233185948495 0  0.9688223347787194 0.1380422469541569 0  1 0.1333333333333333 0  0 0.1666666666666667 0  0.02862494999439357 0.1699959735752642 0  0.05753925708590973 0.1695577039063373 0  0.08715609535715292 0.165871016784818 0  0.118144402773604 0.1595708863768129 0  0.1514714949311194 0.1514714949311194 0  0.1882873248394502 0.1430592343282265 0  0.2291510859561637 0.1372759341689637 0  0.2720531662656427 0.1377990375568711 0  0.3124607123101849 0.1444403904275372 0  0.3488633592161001 0.1537146148423144 0  0.3819253586874752 0.1630286147877288 0  0.4127545764834281 0.1711369448473578 0  0.4422789336674912 0.1774371623855902 0  0.4711554540719197 0.1815086528253843 0  0.4998047119193074 0.18300107789771 0  0.5284843464107266 0.181740411564164 0  0.5574422197157347 0.177843530077476 0  0.5870914293556905 0.171626307984942 0  0.6181027216340126 0.1634872119097816 0  0.6514459392802651 0.1540155751911874 0  0.6882736214296601 0.1445000117677053 0  0.7291472314711872 0.1377228012403266 0  0.7720586589529699 0.1372727607827497 0  0.8124759842055699 0.1429290352371158 0  0.8488903832486033 0.1511096140823454 0  0.8819683399983925 0.1590618669123605 0  0.9128202649713688 0.1653442532212093 0  0.9423766020920511 0.1691293633349545 0  0.9712962653416081 0.1697568667870706 0  1 0.1666666666666667 0  0 0.2 0  0.0269731145418084 0.2019331252146957 0  0.05421637737508062 0.2016587531675504 0  0.08210937594541129 0.1992833960021739 0  0.1113149525535463 0.1948526678173275 0  0.1430592343282264 0.1882873248394503 0  0.1796922049044348 0.1796922049044349 0  0.2248622448565254 0.1714499632820372 0  0.2765487845920325 0.1718484049499862 0  0.3208023309247094 0.1803534351149151 0  0.3570598578358718 0.1893926885512079 0  0.3886675316256143 0.1967868388401878 0  0.4178112619000304 0.2024377430822639 0  0.4456733141907699 0.2064924859569257 0  0.4729090985087932 0.2089996019707803 0  0.4999015579185824 0.2099253966845619 0  0.5269052308517691 0.2092345638435096 0  0.5541717698657228 0.2069376841847722 0  0.5820815178967288 0.2030492621499085 0  0.6112984299532938 0.1974976977110917 0  0.643049962203177 0.1900805027267716 0  0.6796875654281589 0.1807709308221511 0  0.72486131844135 0.1717999767483878 0  0.7765517041443715 0.1714016972282861 0  0.8208089074812241 0.1791910826390994 0  0.8570709595398801 0.1875240130861659 0  0.8886856496748613 0.1940763895100051 0  0.9178403536155975 0.1986201985127788 0  0.9457186934441927 0.2011786856899757 0  0.9729772781174162 0.2016814024079757 0  1 0.2 0  0 0.2333333333333333 0  0.02621208051979702 0.2340428730930349 0  0.05262280387393034 0.2340213247443037 0  0.0795194917409025 0.2332684255314488 0  0.1074079383759802 0.231724008553229 0  0.1372759341689637 0.2291510859561638 0  0.1714499632820371 0.2248622448565254 0  0.2175088415456505 0.2175088415456506 0  0.283468703872152 0.2167882072254096 0  0.3286052941813676 0.2239483264671716 0  0.362737808132705 0.2286623116159345 0  0.3926007280143122 0.231740012649929 0  0.4204830731792349 0.2338744542374306 0  0.4473747837490202 0.2353511565523586 0  0.4737844157414548 0.2362708454556494 0  0.500001647538255 0.2366566586526035 0  0.5262209556673705 0.2365066865051482 0  0.5526359438394002 0.2358143412766632 0  0.5795344386197028 0.2345541254788409 0  0.6074226970483637 0.2326317429481705 0  0.637288885230047 0.2297736301697333 0  0.6714596509487289 0.2252518530289328 0  0.7175134829931362 0.217643351421107 0  0.7834667387113097 0.2165331567420252 0  0.828598265623522 0.2234482976607844 0  0.8627272326792531 0.2279413421391643 0  0.8925879561341207 0.2307487902488818 0  0.920469632415416 0.2325229914845763 0  0.9473625952086805 0.2335127179105106 0  0.973775935768699 0.2337838877103328 0  1 0.2333333333333333 0  0 0.2666666666666667 0  0.02641339444750603 0.2662133176071008 0  0.05299071104115586 0.2664822369556759 0  0.08000219737001617 0.2674706386177113 0  0.1079439802065115 0.2692446479417081 0  0.1377990375568709 0.2720531662656427 0  0.171848404949986 0.2765487845920326 0  0.2167882072254094 0.2834687038721521 0  0.282364993166429 0.2823649931664291 0  0.3282224481937567 0.2747581344764334 0  0.3623109488809204 0.2702366895070177 0  0.3921693974577702 0.267377898729558 0  0.4201155194165965 0.2654537409882853 0  0.4471291528132324 0.2641906
[...]
<CellData  Scalars="q"> 
<DataArray  type="Float64"  Name="q"  format="ascii">1.0141387304136140e+00   1.0141387304136140e+00   1.0000000000000000e+00   1.0000000000000000e+00   1.0000000000000000e+00   1.0000000000000000e+00   1.0000000000000000e+00   1.0000000000000000e+00   1.0022975558673470e+00   1.0000000000000000e+00   1.0158310705947544e+00   1.0051389406617377e+00   1.0249404226080308e+00   1.0180277041766774e+00   1.0246450923393651e+00   1.0229863516487163e+00   1.0147697261905044e+00   1.0171805873121400e+00   1.0003810893864742e+00   1.0035881436340390e+00   1.0000000000000000e+00   1.0000000000000000e+00   1.0000000000000000e+00   1.0000000000000000e+00   1.0110711139694453e+00   1.0000000000000000e+00   1.0495638317736746e+00   1.0000000000000000e+00   1.1015888546849917e+00   1.0309828240789136e+00   1.0808271500021109e+00   1.0554295027247211e+00   1.0268438413745757e+00   1.0200928665293763e+00   1.0000000000000000e+00   1.0000000000000000e+00   1.0000000000000000e+00   1.0000000000000000e+00   1.0000000000000000e+00   1.0000000000000000e+00   1.0109630385987547e+00   1.0000000000000000e+00   1.0227243649013660e+00   1.0144172719797713e+00   1.0258600024774378e+00   1.0225234008938455e+00   1.0190036684118855e+00   1.0199825083083953e+00   1.0060846343774608e+00   1.0086698616616823e+00   1.0000000000000000e+00   1.0000000000000000e+00   1.0000000000000000e+00   1.0000000000000000e+00   1.0000000000000000e+00   1.0000000000000000e+00   1.0189490728059909e+00   1.0000000000000000e+00   1.0037702795812278e+00   1.0227157731414793e+00   1.0000000000000000e+00   1.0000000000000000e+00   1.0013198008204944e+00   1.0013198008204944e+00   1.0000000000000000e+00   1.0159427807814985e+00   1.0000000000000000e+00   1.0116197150701534e+00   1.0000000000000000e+00   1.0083840775943305e+00   1.0073297758230455e+00   1.0107342281873302e+00   1.0169715526150822e+00   1.0161878537970592e+00   1.0199080225392259e+00   1.0197187195723454e+00   1.0147122938191429e+00   1.0186577524220737e+00   1.0056410607325279e+00   1.0152441017161467e+00   1.0000000000000000e+00   1.0146182977004761e+00   1.0004233094056318e+00   1.0200355946587703e+00   1.0062497552457466e+00   1.0280239481043005e+00   1.0027822823371435e+00   1.0280474099887282e+00   1.0000000000000000e+00   1.0066519384332417e+00   1.0169051218109679e+00   1.0054410861590508e+00   1.0222830934063010e+00   1.0345349710618421e+00   1.0046058785529473e+00   1.0359592312069767e+00   1.0000000000000000e+00   1.0198002695889303e+00   1.0000000000000000e+00   1.0098772467751875e+00   1.0034829833660404e+00   1.0091960832461588e+00   1.0144499219236418e+00   1.0143037152453678e+00   1.0197534239857506e+00   1.0190456923411484e+00   1.0166928751091655e+00   1.0193828382494738e+00   1.0083902859824108e+00   1.0161772895357521e+00   1.0007777437992513e+00   1.0135319951084085e+00   1.0000000000000000e+00   1.0139867913132241e+00   1.0000000000000000e+00   1.0142806572087271e+00   1.0003765182958242e+00   1.0058148060777077e+00   1.0189490736938844e+00   1.0000000000000000e+00   1.0000000000000000e+00   1.0000000000000000e+00   1.0159427807814985e+00   1.0000000000000000e+00   1.0529245103760236e+00   1.0529245103760239e+00   1.0521480568017771e+00   1.0667329242518939e+00   1.0399778981019783e+00   1.0596533879464523e+00   1.0286309696205591e+00   1.0426516330574014e+00   1.0225517458509168e+00   1.0284191401642153e+00   1.0221537222722537e+00   1.0233614644925408e+00   1.0274008185710561e+00   1.0299018702590619e+00   1.0385261210744638e+00   1.0464872171330351e+00   1.0543926590847628e+00   1.0680568286226229e+00   1.0696299716553406e+00   1.0858927575829112e+00   1.0723336729537287e+00   1.0882289395713172e+00   1.0505332928615700e+00   1.0644977599432104e+00   1.0153189058077137e+00   1.0242839711127800e+00   1.0225454338267725e+00   1.0130603294455001e+00   1.0721492645323589e+00   1.0605455002254234e+00   1.0881096987892585e+00   1.0972549169987220e+00   1.0711645087142632e+00   1.0961995523064050e+00   1.0485142091842083e+00   1.0751355914989635e+00   1.0315335941423205e+00   1.0497411273474524e+00   1.0230205554014553e+00   1.0308516727884833e+00   1.0216829883480480e+00   1.0232729067895345e+00   1.0256986393379894e+00   1.0275809168612806e+00   1.0336537516805386e+00   1.0403994195287445e+00   1.0431565341933151e+00   1.0551936963301072e+00   1.0476731490525804e+00   1.0623170041593550e+00   1.0361866719323789e+00   1.0506183894373748e+00   1.0000000000000000e+00   1.0142806585587716e+00   1.0000000000000000e+00   1.0000000000000000e+00   1.0000000000000000e+00   1.0000000000000000e+00   1.0116197150701538e+00   1.0000000000000000e+00   1.0667329242518937e+00   1.0521480568017774e+00   1.0922724047807690e+00   1.0922724047807686e+00   1.0864521836223586e+00   1.1042576924053318e+00   1.0599787607087365e+00   1.0822770336012115e+00   1.0351263432348530e+00   1.0488416010850350e+00   1.0305717168752904e+00   1.0322250133362583e+00   1.0506404450391134e+00   1.0480694503786772e+00   1.0830540186775328e+00   1.0847078585839161e+00   1.1105291882723640e+00   1.1175638519945910e+00   1.1184022862760901e+00   1.1280470599580599e+00   1.0977088870208258e+00   1.1088314939254615e+00   1.0527652063735151e+00   1.0654699460623089e+00   1.0129542321841489e+00   1.0206577745325216e+00   1.0206189583314991e+00   1.0097482188805191e+00   1.0699421793702126e+00   1.0479916794008868e+00   1.1134904695802026e+00   1.1006713179992689e+00   1.1259978719533774e+00   1.1337145357695515e+00   1.1064375542034215e+00   1.1310075564626496e+00   1.0702084662052176e+00   1.0979264445262755e+00   1.0387056947754350e+00   1.0558711993179466e+00   1.0291393116085117e+00   1.0326814005873559e+00   1.0440327229724098e+00   1.0423159487979770e+00   1.0693613467167613e+00   1.0715313863909208e+00   1.0866609651592261e+00   1.0946672611567734e+00   1.0812042492449248e+00   1.0932137708687395e+00   1.0476731502781838e+00   1.0623170053783373e+00   1.0000000000000000e+00   1.0139867928907194e+00   1.0000000000000000e+00   1.0000000000000000e+00   1.0000000000000000e+00   1.0022975558673470e+00   1.0083840775943309e+00   1.0000000000000000e+00   1.0596533879464523e+00   1.0399778981019787e+00   1.1042576924053313e+00   1.0864521836223582e+00   1.1174764304078559e+00   1.1174764304078559e+00   1.0950576435187860e+00   1.1111161499745290e+00   1.0557190535207432e+00   1.0727150506339558e+00   1.0427118279008245e+00   1.0438224774966880e+00   1.0748291392866962e+00   1.0665973239785926e+00   1.1164272433789386e+00   1.1122239926740167e+00   1.1362803230879113e+00   1.1358067273438115e+00   1.1237888606294990e+00   1.1258538068005071e+00   1.0856034414688984e+00   1.0906323989427367e+00   1.0386700924100138e+00   1.0463795855351801e+00   1.0071444755289520e+00   1.0116735679605295e+00   1.0108871071153820e+00   1.0035427481373436e+00   1.0493766685389803e+00   1.0279507066156002e+00   1.1012137395311699e+00   1.0739348045400028e+00   1.1401478363461692e+00   1.1210246615124140e+00   1.1431651651138455e+00   1.1444804213783573e+00   1.1111556124529407e+00   1.1304163775539595e+00   1.0627045744667383e+00   1.0833417145293625e+00   1.0405240486357892e+00   1.0450349731512403e+00   1.0643641598094360e+00   1.0583496096876890e+00   1.0976194430967241e+00   1.0956447948553949e+00   1.1081695339338988e+00   1.1115574410580358e+00   1.0866609660445246e+00   1.0946672624635141e+00   1.0431565358857777e+00   1.0551936977769878e+00   1.0007777448031503e+00   1.0135319961713471e+00   1.0000000000000000e+00   1.0000000000000000e+00   1.0051389406617377e+00   1.0158310705947544e+00   1.0107342281873308e+00   1.0073297758230457e+00   1.0426516330574018e+00   1.0286309696205600e+00   1.0822770336012113e+00   1.0599787607087365e+00   1.1111161499745292e+00   1.0950576435187862e+00   1.1193660560431902e+00   1.1193660560431904e+00   1.0746005060245021e+00   1.0886967010114381e+00   1.0461174936988997e+00   1.0439546640558672e+00   1.0820273457352299e+00   1.0691439591142764e+00   1.1178547097989753e+00   1.1053248747512885e+00   1.1169865059355850e+00   1.1093268667361020e+00   1.0904544592317533e+00   1.0851918954363071e+00   1.0537742463415820e+00   1.0526814299173095e+00   1.0212014588978595e+00   1.0237079127385063e+00   1.0026577335138294e+00   1.0050541133548747e+00   1.0039409673924853e+00   1.0005113119384794e+00   1.0254331002259689e+00   1.0116599468389507e+00   1.0616634562355469e+00   1.0372824546493711e+00   1.1025494359113974e+00   1.0727879767022113e+00   1.1298912334908491e+00   1.1088596616622013e+00   1.1354673721645394e+00   1.1340319431267452e+00   1.0831736421696696e+00   1.0995146582378668e+00   1.0430128747156087e+00   1.0449817416411178e+00   1.0714221465469120e+00   1.0608753432276363e+00   1.1018912811260542e+00   1.0931256754376595e+00   1.0976194395966070e+00   1.0956447985671747e+00   1.0693613487881959e+00   1.0715313838179399e+00   1.0336537527636556e+00   1.0403994210906999e+00   1.0083902860862421e+00   1.0161772897899328e+00   1.0060846335390914e+00   1.0086698609359677e+00   1.0180277041766774e+00   1.0249404226080310e+00   1.0161878537970592e+00   1.0169715526150822e+00   1.0284191401642160e+00   1.0225517458509168e+00   1.0488416010850357e+00   1.0351263432348534e+00   1.0727150506339558e+00   1.0557190535207432e+00   1.0886967010114381e+00   1.0746005060245021e+00   1.0454433097202864e+00   1.0454433097202862e+00   1.0172423197733531e+00   1.0084617075164539e+00   1.0598050613707231e+00   1.0242668037490896e+00   1.0756547345418574e+00   1.0615194250150060e+00   1.0661824216859750e+00   1.0551735810861667e+00   1.0430349919227424e+00   1.0358877972803775e+00   1.0219913647858752e+00   1.0185649068709379e+00   1.0078632304578297e+00   1.0072796461943208e+00   1.0009594860186670e+00   1.0016577410698246e+00   1.0007742999830127e+00   1.0001285610812587e+00   1.0078638014720553e+00   1.0025707267272881e+00   1.0234674198288163e+00   1.0107677238881885e+00   1.0469980504005787e+00   1.0264201525961321e+00   1.0739909531047167e+00   1.0497300338727942e+00   1.0928289954429407e+00   1.0721817736122985e+00   1.0502153346135565e+00   1.0471684747834478e+00   1.0160517605040327e+00   1.0094128629035009e+00   1.0544164940969480e+00   1.0220104275098609e+00   1.0714221111549562e+00   1.0608753941143223e+00   1.0643641625143028e+00   1.0583495413424282e+00   1.0440327222080743e+00   1.0423159538183169e+00   1.0256986405049406e+00   1.0275809185998059e+00   1.0166928750409991e+00   1.0193828388944031e+00   1.0190036675884768e+00   1.0199825080790568e+00   1.0229863516487172e+00   1.0246450923393655e+00   1.0197187195723456e+00   1.0199080225392267e+00   1.0233614644925408e+00   1.0221537222722541e+00   1.0322250133362585e+00   1.0305717168752908e+00   1.0438224774966882e+00   1.0427118279008250e+00   1.0439546640558677e+00   1.0461174936988997e+00   1.0084617075164539e+00   1.0172423197733531e+00   1.0037470021481065e+00   1.0037470021481065e+00   1.0140125970486542e+00   1.0087537617902642e+00   1.0363528716378760e+00   1.0390658206971606e+00   1.0293756400232348e+00   1.0348172107095563e+00   1.0151298525630015e+00   1.0194958230830311e+00   1.0055970696182290e+00   1.0079586367965241e+00   1.0014547538301053e+00   1.0020248868406032e+00   1.0004178040750360e+00   1.0003201544090905e+00   1.0004578687230972e+00   1.0004711440460072e+00   1.0020317578998243e+00   1.0019651365743145e+00   1.0075848262759890e+00   1.0067117667586269e+00   1.0186769211855911e+00   1.0169013175562343e+00   1.0334039195483689e+00   1.0318139797681487e+00   1.0379536748359375e+00   1.0395907442174230e+00   1.0077770674525039e+00   1.0152461695644217e+00   1.0039133701488943e+00   1.0035817845124333e+00   1.0160520439026584e+00   1.0094129775909657e+00   1.0430127682112316e+00   1.0449816811059010e+00   1.0405240278131016e+00   1.0450350791249046e+00   1.0291393185757163e+00   1.0326814130583160e+00   1.0216829906317129e+00   1.0232729126465405e+00   1.0197534255158189e+00   1.0190456952181592e+00   1.0258600029399090e+00   1.0225234023035668e+00   1.0171805873121404e+00   1.0147697261905044e+00   1.0186577524220743e+00   1.0147122938191435e+00   1.0299018702590625e+00   1.0274008185710568e+00   1.0480694503786772e+00   1.0506404450391129e+00   1.0665973239785929e+00   1.0748291392866960e+00   1.0691439591142760e+00   1.0820273457352296e+00   1.0242668037490896e+00   1.0598050613707226e+00   1.0087537617902644e+00   1.0140125970486542e+00   1.0521685272284023e+00   1.0521685272284023e+00   1.0814148164125845e+00   1.1044521762388229e+00   1.0579673330011916e+00   1.0861667949498561e+00   1.0320992415926440e+00   1.0566303721223709e+00   1.0138302100420269e+00   1.0294981631803348e+00   1.0034787146966966e+00   1.0104172832428404e+00   1.0000319058744100e+00   1.0011484523160619e+00   1.0020726725689049e+00   1.0012099525051004e+00   1.0095347447079424e+00   1.0101042777879878e+00   1.0234044829566555e+00   1.0276551233568236e+00   1.0433484027719435e+00   1.0524987448289640e+00   1.0644245468020967e+00   1.0784809370908848e+00   1.0702746478442289e+00   1.0872141256640824e+00   1.0266664300163533e+00   1.0655848917268997e+00   1.0077771485688776e+00   1.0152464437009896e+00   1.0502155272916585e+00   1.0471686456669120e+00   1.0831737453759547e+00   1.0995151140246437e+00   1.0627046911188582e+00   1.0833418957512317e+00   1.0387057022556345e+00   1.0558711979844491e+00   1.0230205624226696e+00   1.0308516867756781e+00   1.0144499252686032e+00   1.0143037180803502e+00   1.0227243668203796e+00   1.0144172743584479e+00   1.0035881436340393e+00   1.0003810893864742e+00   1.0152441017161471e+00   1.0056410607325283e+00   1.0464872171330353e+00   1.0385261210744643e+00   1.0847078585839143e+00   1.0830540186775317e+00   1.1122239926740156e+00   1.1164272433789357e+00   1.1053248747512896e+00   1.1178547097989762e+00   1.0615194250150060e+00   1.0756547345418588e+00   1.0390658206971597e+00   1.0363528716378756e+00   1.1044521762388224e+00   1.0814148164125830e+00   1.1521329631007944e+00   1.1521329631007942e+00   1.1283362238541930e+00   1.1528307115103946e+00   1.0882615775499600e+00   1.1240036827960798e+00   1.0465888974011404e+00   1.0763502509460083e+00   1.0154911546560288e+00   1.0328189501197573e+00   1.0015439412520581e+00   1.0065245050254237e+00   1.0070107160647064e+00   1.0047361164210113e+00   1.0299371058920668e+00   1.0273059738026109e+00   1.0648984066848466e+00   1.0668361323212754e+00   1.1027726063209209e+00   1.1104435109701791e+00   1.1286311050570603e+00   1.1399585154813074e+00   1.1188992829262323e+00   1.1361102901342075e+00   1.0702747415075531e+00   1.0872140823991159e+00   1.0379536379861689e+00   1.0395906822893246e+00   1.0928294238818912e+00   1.0721818320549952e+00   1.1354681099583548e+00   1.1340327114439677e+00   1.1111557335316822e+00   1.1304163015851691e+00   1.0702084867551536e+00   1.0979264713129109e+00   1.0315336038719056e+00   1.0497411386101541e+00   1.0034829856229281e+00   1.0091960850223398e+00   1.0109630406007306e+00   1.0000000000000000e+00   1.0000000000000000e+00   1.0000000000000000e+00   1.0146182977004767e+00   1.0000000000000000e+00   1.0680568286226242e+00   1.0543926590847643e+00   1.1175638519945905e+00   1.1105291882723662e+00   1.1358067273438068e+00   1.1362803230879084e+00   1.1093268667361027e+00   1.1169865059355821e+00   1.0551735810861684e+00   1.0661824216859768e+00   1.0348172107095559e+00   1.0293756400232348e+00   1.0861667949498539e+00   1.0579673330011894e+00   1.1528307115103940e+00   1.1283362238541903e+00   1.1765837941308748e+00   1.1765837941308743e+00   1.1509358489422703e+00   1.1772578885396439e+00   1.0944057958705260e+00   1.1304727920152464e+00   1.0383492781684160e+00   1.0667711882939990e+00   1.0083012273640692e+00   1.0191437743538572e+00   1.0179418332944299e+00   1.0140125736800569e+00   1.0604243197637540e+00   1.0526635273096869e+00   1.1149095789528078e+00   1.1113605421175905e+00   1.1572020259437712e+00   1.1591033963743240e+00   1.1653337800410439e+00   1.1719416072290563e+00   1.1286311141377237e+00   1.1399585121955902e+00   1.0644244796046609e+00   1.0784809495388243e+00   1.0334039944377185e+00   1.0318139594388791e+00   1.0739911238999804e+00   1.0497301115310300e+00   1.1298911895580734e+00   1.1088598248844082e+00   1.1431649924528375e+00   1.1444802349101126e+00   1.1064375641753055e+00   1.1310076060517171e+00   1.0485142113862762e+00   1.0751355877013626e+00   1.0000000000000000e+00   1.0098772494370878e+00   1.0000000000000000e+00   1.0000000000000000e+00   1.0000000000000000e+00   1.0000000000000000e+00   1.0200355946587714e+00   1.0004233094056325e+00   1.0858927575829143e+00   1.0696299716553432e+00   1.1280470599580625e+00   1.1184022862760938e+00   1.1258538068005044e+00   1.1237888606294990e+00   1.0851918954363045e+00   1.0904544592317498e+00   1.0358877972803784e+00   1.0430349919227426e+00   1.0194958230830300e+00   1.0151298525630010e+00   1.0566303721223680e+00   1.0320992415926418e+00   1.1240036827960780e+00   1.0882615775499573e+00   1.1772578885396410e+00   1.1509358489422679e+00   1.1844254155402467e+00   1.1844254155402445e+00   1.1395605292532300e+00   1.1656322443897806e+00   1.0701052417406205e+00   1.1026863220559104e+00   1.0222039997135854e+00   1.0379949941844062e+00   1.0355933536431978e+00   1.0290724007715930e+00   1.0934127164212553e+00   1.0810023478904920e+00   1.1517013304238803e+00   1.1435474909096217e+00   1.1767449411944655e+00   1.1737755237596559e+00   1.1572020287515574e+00   1.1591033982683165e+00   1.1027726059612752e+00   1.1104435161366284e+00   1.0433484117218299e+00   1.0524987470351679e+00   1.0186769320366742e+00   1.0169013238760587e+00   1.0469980532655179e+00   1.0264201538309126e+00   1.1025494623872352e+00   1.0727880070640283e+00   1.1401478749330094e+00   1.1210246591200690e+00   1.1259979005384118e+00   1.1337145679487213e+00   1.0711645084828239e+00   1.0961995463764063e+00   1.0000000000000000e+00   1.0198002735369516e+00   1.0000000000000000e+00   1.0000000000000000e+00   1.0000000000000000e+00   1.0110711139694455e+00   1.0280239481043014e+00   1.0062497552457468e+00   1.0882289395713212e+00   1.0723336729537318e+00   1.1088314939254644e+00   1.0977088870208296e+00   1.0906323989427360e+00   1.0856034414688991e+00   1.0526814299173077e+00   1.0537742463415807e+00   1.0185649068709388e+00   1.0219913647858754e+00   1.0079586367965239e+00   1.0055970696182301e+00   1.0294981631803326e+00   1.0138302100420260e+00   1.0763502509460081e+00   1.0465888974011399e+00   1.1304727920152455e+00   1.0944057958705282e+00   1.1656322443897784e+00   1.1395605292532283e+00   1.1607256817091538e+00   1.1607256817091534e+00   1.1069936592556349e+00   1.1333296522970773e+00   1.0400858258043288e+00   1.0619725207909858e+00   1.0520641141308826e+00   1.0437743725647959e+00   1.1136359798050446e+00   1.0970117666141397e+00   1.1542505781616499e+00   1.1426743536028694e+00   1.1517013328144907e+00   1.1435474933952205e+00   1.1149095823477577e+00   1.1113605458444971e+00   1.0648984113104305e+00   1.0668361359341523e+00   1.0234044871864763e+00   1.0276551270117329e+00   1.0075848288921407e+00   1.0067117687604541e+00   1.0234674291599299e+00   1.0107677262967509e+00   1.0616634671928487e+00   1.0372824636355868e+00   1.1012137368584414e+00   1.0739348062349561e+00   1.1134904657171159e+00   1.1006713189687276e+00   1.0881096962489318e+00   1.0972549130767308e+00   1.0046058801458499e+00   1.0359592308719083e+00   1.0000000000000000e+00   1.0000000000000000e+00   1.0000000000000000e+00   1.0495638317736751e+00   1.0280474099887300e+00   1.0027822823371455e+00   1.0644977599432117e+00   1.0505332928615709e+00   1.0654699460623105e+00   1.0527652063735158e+00   1.0463795855351803e+00   1.0386700924100141e+00   1.0237079127385060e+00   1.0212014588978593e+00   1.0072796461943212e+00   1.0078632304578294e+00   1.0020248868406036e+00   1.0014547538301062e+00   1.0104172832428404e+00