<?xml version="1.0"?>
<VTKFile type="UnstructuredGrid"  version="0.1"  >
<UnstructuredGrid>
<Piece  NumberOfPoints="961" NumberOfCells="1800">
<Points>
<DataArray  type="Float64"  NumberOfComponents="3"  format="ascii">0 0 0  0.03333333333333333 0 0  0.06666666666666667 0 0  0.1 0 0  0.1333333333333333 0 0  0.1666666666666667 0 0  0.2 0 0  0.2333333333333334 0 0  0.2666666666666667 0 0  0.3 0 0  0.3333333333333333 0 0  0.3666666666666666 0 0  0.4 0 0  0.4333333333333333 0 0  0.4666666666666667 0 0  0.5 0 0  0.5333333333333333 0 0  0.5666666666666667 0 0  0.6 0 0  0.6333333333333333 0 0  0.6666666666666666 0 0  0.7 0 0  0.7333333333333333 0 0  0.7666666666666667 0 0  0.8 0 0  0.8333333333333333 0 0  0.8666666666666667 0 0  0.9 0 0  0.9333333333333333 0 0  0.9666666666666667 0 0  1 0 0  0 0.03333333333333333 0  0.04069634894596801 0.04069634894596801 0  0.07475809320308285 0.03793604032174529 0  0.1066948918818082 0.03425967370865175 0  0.1382849126166678 0.0310747637925191 0  0.1699999947062345 0.02860923047837619 0  0.2019344071003332 0.02695242386153982 0  0.2340436466151818 0.02618924926958205 0  0.2662143281937162 0.02639150483709776 0  0.2983103204153648 0.0275965456838191 0  0.3302235874777164 0.02982561007039991 0  0.3619172839338096 0.03314949988458 0  0.3934934507184147 0.03778355580916005 0  0.4254190040732093 0.04417760178407967 0  0.4593222292268958 0.05267699582151932 0  0.4992118465539278 0.05946849095150999 0  0.540411563031802 0.05297435204466189 0  0.5746363840863373 0.04413552239701821 0  0.6066353515101378 0.03766358456821043 0  0.6382534397075973 0.03302887736999162 0  0.6699830532398355 0.02972619674773529 0  0.701926035576353 0.02752865652370991 0  0.734041237764241 0.02636216014995007 0  0.7662171520430185 0.02620103330927712 0  0.7983191563729425 0.0270016515850461 0  0.8302411223051221 0.02868735328593643 0  0.8619496502438287 0.03116897077683297 0  0.8935546173856259 0.03434412674696179 0  0.9255443184329619 0.03793157912316351 0  0.9596157606119585 0.04038423920129244 0  1 0.03333333333333333 0  0 0.06666666666666667 0  0.03793604032174529 0.07475809320308287 0  0.07294457593665486 0.07294457593665486 0  0.1057511915073254 0.06774614537828923 0  0.1376954290309722 0.06221306537876613 0  0.1695570883650328 0.05750639816420483 0  0.2016566636076722 0.05417293930604981 0  0.2340213826313447 0.0525743090451669 0  0.2664858342071763 0.05294395654938792 0  0.2988112299939869 0.05533924823035904 0  0.330844139057088 0.0596725736601221 0  0.3626203922787034 0.06581872801815149 0  0.394451636520933 0.07364891375270768 0  0.4270726857374828 0.08279544160170506 0  0.4617533553551454 0.09175681327432761 0  0.4994507556009371 0.09634507310008456 0  0.5376233361305055 0.09208858858449671 0  0.5727737892984504 0.08296719633263443 0  0.6056565230665215 0.07364345538065543 0  0.6376420777522516 0.06572329352479288 0  0.6695274089938065 0.05955285682797772 0  0.7016417594395949 0.05523987777863315 0  0.7340170809422123 0.05289542838588161 0  0.7664909272064059 0.05258853939755167 0  0.7988269841880036 0.05423717105560757 0  0.830874805228724 0.05758933053862495 0  0.8626749877450369 0.06227009606024612 0  0.8945479896329095 0.06771534453589205 0  0.9272457228835173 0.0727542766989121 0  0.9620684207032575 0.07445568125159138 0  1 0.06666666666666667 0  0 0.1 0  0.03425967370865176 0.1066948918818081 0  0.06774614537828925 0.1057511915073254 0  0.1004972549552912 0.1004972549552912 0  0.1330306666717053 0.09367562779107676 0  0.1658559891222052 0.08710469415826488 0  0.1992712222833318 0.08203935134288216 0  0.2332653451670103 0.07943907713411279 0  0.267479571501426 0.07992412283881455 0  0.3013777207264507 0.08354183317920627 0  0.3346382740976574 0.08982091711277479 0  0.3672768518111552 0.09805880490610759 0  0.3995979911889065 0.1074122262517707 0  0.4321142360608446 0.1167074179308529 0  0.4653861366165044 0.1241149635804319 0  0.4996001083713395 0.1272027911325531 0  0.5339905805779938 0.1243841176262277 0  0.5675768081380175 0.1170007323996883 0  0.6003937659997798 0.1075831352860584 0  0.6329686347471368 0.09808762789019211 0  0.6658201725657557 0.08975206729481228 0  0.6992528697716908 0.08344341262573411 0  0.7332600421980455 0.0798637278453856 0  0.7674859923925651 0.07944947393131754 0  0.8013972211933651 0.08208868060769575 0  0.8346752953256557 0.08712663813480635 0  0.8673401489930834 0.09360527452503663 0  0.899702742177258 0.1002972569742042 0  0.9322846548715013 0.1054520098342085 0  0.9656558729618928 0.1064453823372288 0  1 0.1 0  0 0.1333333333333333 0  0.0310747637925191 0.1382849126166678 0  0.06221306537876616 0.1376954290309722 0  0.09367562779107681 0.1330306666717053 0  0.1259394901930771 0.1259394901930771 0  0.1595299535851487 0.1180749950085028 0  0.194819502658052 0.1112132446482937 0  0.2317130044678447 0.1072839685818877 0  0.2692646212093658 0.1078228781820853 0  0.3059441960197194 0.1128143465367626 0  0.3409480788875198 0.1208471544709154 0  0.3742669144729854 0.1302701629155329 0  0.4063021663036085 0.139666736404302 0  0.4375885084892365 0.1478077378928452 0  0.4686223730963417 0.1535062607574045 0  0.4997079053314055 0.1556721243772815 0  0.5308663673223494 0.1537456401910505 0  0.5620723766834336 0.1481675489196571 0  0.593584121953056 0.1400084841539719 0  0.6258818924806 0.1304916802265229 0  0.6594954923157068 0.1209083484565899 0  0.6948014458788422 0.1127551905099057 0  0.7317078157035393 0.1077540857139592 0  0.7692712210871605 0.1072876623240017 0  0.805963644132933 0.1112114650613064 0  0.8409838895986661 0.1179598302230278 0  0.8743257656422568 0.1256742326660718 0  0.9063947242447306 0.1326598500052426 0  0.9377299031693617 0.1373250116985139 0  0.9688310288581469 0.1380503495034691 0  1 0.1333333333333333 0  0 0.1666666666666667 0  0.02860923047837619 0.1699999947062344 0  0.05750639816420484 0.1695570883650329 0  0.08710469415826488 0.1658559891222053 0  0.1180749950085029 0.1595299535851487 0  0.1513900254461747 0.1513900254461747 0  0.1882119982148017 0.142922153355821 0  0.2291192737124515 0.137086336056519 0  0.2720994438005582 0.1376134022584051 0  0.3125440172140131 0.1443104892800538 0  0.3489489626382543 0.1536432515998923 0  0.3819972597534906 0.1630028773631874 0  0.4128077312653843 0.171144591047437 0  0.4423130487531096 0.1774688988590959 0  0.4711719394615321 0.1815561500071812 0  0.4998050404905586 0.1830548425725894 0  0.5284687670319254 0.1817896013789422 0  0.5574094698325955 0.1778782066290443 0  0.5870401607372945 0.1716376332008286 0  0.6180334650139013 0.1634653044891224 0  0.6513646130726429 0.1539471935493826 0  0.6881984041472723 0.1443707653651165 0  0.729115479603768 0.1375355612467318 0  0.7721049449262001 0.1370835124955089 0  0.8125592518946529 0.1427901426296637 0  0.8489759193441671 0.1510240766981623 0  0.8820401671001084 0.1590161085187497 0  0.9128733602690204 0.1653247037559937 0  0.9424106685805935 0.1691251943232288 0  0.9713126463229728 0.1697588775080292 0  1 0.1666666666666667 0  0 0.2 0  0.02695242386153982 0.2019344071003331 0  0.05417293930604981 0.2016566636076722 0  0.08203935134288219 0.1992712222833319 0  0.1112132446482937 0.1948195026580522 0  0.1429221533558211 0.1882119982148017 0  0.1795318245176534 0.1795318245176534 0  0.2247631346423934 0.1711533389442376 0  0.2766734034490201 0.1715593131614943 0  0.3209685009546237 0.1801953937390744 0  0.3571990525757646 0.189320070021329 0  0.3887708131932761 0.1967604177957548 0  0.4178827065476704 0.2024375613362936 0  0.44571801221673 0.2065082744068501 0  0.4729308438535723 0.2090247637580964 0  0.4999024054727585 0.2099541870194321 0  0.5268852446666372 0.2092611808560704 0  0.5541289482162773 0.2069563117212496 0  0.5820120437611954 0.2030532895238917 0  0.6111972020159353 0.1974768919501546 0  0.6429132705020525 0.1900144469712972 0  0.679527454234605 0.1806170736739923 0  0.7247623273294403 0.1715058641242754 0  0.7766762803586533 0.1711084690442608 0  0.8209748908505506 0.1790250947135161 0  0.8572098493032885 0.1874407444884454 0  0.8887885313487 0.1940363547336566 0  0.9179113177326873 0.1986027783915268 0  0.9457628281470744 0.2011730156443878 0  0.9729983480827561 0.2016808435638695 0  1 0.2 0  0 0.2333333333333334 0  0.02618924926958206 0.2340436466151817 0  0.05257430904516692 0.2340213826313447 0  0.0794390771341128 0.2332653451670103 0  0.1072839685818877 0.2317130044678448 0  0.1370863360565191 0.2291192737124516 0  0.1711533389442376 0.2247631346423935 0  0.2171336481655541 0.217133648165554 0  0.2838705131970741 0.2163915219733342 0  0.328898901115556 0.2238284248854626 0  0.3629276311115059 0.2286207948098993 0  0.3927258422675643 0.2317253850941884 0  0.4205648451100642 0.2338717783393064 0  0.4474246633038811 0.2353549114106704 0  0.4738085897909013 0.236278239233059 0  0.5000029125284494 0.2366656613603868 0  0.5261992959848675 0.2365154193692164 0  0.5525885168600321 0.2358208819638113 0  0.5794549764319634 0.2345560469818677 0  0.6072995506536796 0.2326244902490383 0  0.6370999650113174 0.2297446884554901 0  0.6711635315982887 0.2251553110463102 0  0.7171385399921173 0.2172708582461334 0  0.7838683959664517 0.2161314499583895 0  0.8288914738127328 0.2233237252293469 0  0.862916476739366 0.2278950578102122 0  0.8927123352129205 0.230728779960838 0  0.9205505252261785 0.2325140080865351 0  0.9474114602199294 0.2335090730183723 0  0.9737989665278253 0.2337828480466503 0  1 0.2333333333333333 0  0 0.2666666666666667 0  0.02639150483709776 0.2662143281937162 0  0.05294395654938791 0.2664858342071764 0  0.07992412283881457 0.267479571501426 0  0.1078228781820854 0.2692646212093658 0  0.1376134022584051 0.2720994438005582 0  0.1715593131614944 0.27667340344902 0  0.2163915219733343 0.2838705131970738 0  0.2827378399117654 0.2827378399117652 0  0.3285171941917579 0.2748548843783686 0  0.3624990292777552 0.2702657856379839 0  0.392292121469598 0.2673852720026316 0  0.4201951177415811 0.2654519017277004 0  0.4471774947324391 0.2641841332993547
[...]
<CellData  Scalars="q"> 
<DataArray  type="Float64"  Name="q"  format="ascii">1.0144395804855353e+00   1.0144395804855355e+00   1.0000000000000000e+00   1.0000000000000000e+00   1.0000000000000000e+00   1.0000000000000000e+00   1.0000000000000000e+00   1.0000000000000000e+00   1.0023270678486560e+00   1.0000000000000000e+00   1.0159583598273816e+00   1.0051986424407453e+00   1.0251331530299679e+00   1.0181827495057771e+00   1.0248330857586354e+00   1.0231767229890394e+00   1.0148827916410363e+00   1.0173253979812142e+00   1.0003912363462069e+00   1.0036332031276323e+00   1.0000000000000000e+00   1.0000000000000000e+00   1.0000000000000000e+00   1.0000000000000000e+00   1.0113586312003124e+00   1.0000000000000000e+00   1.0502248510019518e+00   1.0000000000000000e+00   1.1037385700288866e+00   1.0311763589695746e+00   1.0824431815676647e+00   1.0564866589423150e+00   1.0273835834402660e+00   1.0203313751301399e+00   1.0000000000000000e+00   1.0000000000000000e+00   1.0000000000000000e+00   1.0000000000000000e+00   1.0000000000000000e+00   1.0000000000000000e+00   1.0110439220576206e+00   1.0000000000000000e+00   1.0228956820570509e+00   1.0145376592604383e+00   1.0260607762916214e+00   1.0227096980855295e+00   1.0191588159097924e+00   1.0201552966421843e+00   1.0061484791826973e+00   1.0087628756866613e+00   1.0000000000000000e+00   1.0000000000000000e+00   1.0000000000000000e+00   1.0000000000000000e+00   1.0000000000000000e+00   1.0000000000000000e+00   1.0192154320890363e+00   1.0000000000000000e+00   1.0038503916515005e+00   1.0231052467723822e+00   1.0000000000000000e+00   1.0000000000000000e+00   1.0013756178372297e+00   1.0013756178372297e+00   1.0000000000000000e+00   1.0162183589312912e+00   1.0000000000000000e+00   1.0117453379872370e+00   1.0000000000000000e+00   1.0084729896680233e+00   1.0074223845277348e+00   1.0108529793126508e+00   1.0171459491170229e+00   1.0163657471534600e+00   1.0201050947695396e+00   1.0199320832046910e+00   1.0148635035181250e+00   1.0188569980243434e+00   1.0057203798422096e+00   1.0154054312094754e+00   1.0000000000000000e+00   1.0147732848042677e+00   1.0005013079706160e+00   1.0202627345626971e+00   1.0064420523762856e+00   1.0283948569510732e+00   1.0028725220132382e+00   1.0285962582986117e+00   1.0000000000000000e+00   1.0069778837652916e+00   1.0171903256283845e+00   1.0056433779078588e+00   1.0227596029686681e+00   1.0353210620044377e+00   1.0047295150953799e+00   1.0365321746177880e+00   1.0000000000000000e+00   1.0200273949629082e+00   1.0000000000000000e+00   1.0099887046290903e+00   1.0035393560374346e+00   1.0093009611253150e+00   1.0145991522307438e+00   1.0144621113536205e+00   1.0199493321672921e+00   1.0192522494783844e+00   1.0168638111573580e+00   1.0195900259714827e+00   1.0084933457881629e+00   1.0163465951284592e+00   1.0008205582038006e+00   1.0136689776572512e+00   1.0000000000000000e+00   1.0141332259127225e+00   1.0000000000000000e+00   1.0144583062215085e+00   1.0003613715477695e+00   1.0059579424626244e+00   1.0192154327439682e+00   1.0000000000000000e+00   1.0000000000000000e+00   1.0000000000000000e+00   1.0162183589312912e+00   1.0000000000000000e+00   1.0535672868421915e+00   1.0535672868421915e+00   1.0526039122342494e+00   1.0672830132838369e+00   1.0403170546986402e+00   1.0601402619388622e+00   1.0289176453066711e+00   1.0430425715326821e+00   1.0228311595370196e+00   1.0287577181610967e+00   1.0224393098323541e+00   1.0236900881393580e+00   1.0277062774345869e+00   1.0302717421402305e+00   1.0388850890503623e+00   1.0469471462958977e+00   1.0548641171673583e+00   1.0686504710774911e+00   1.0702804877770447e+00   1.0866432734453100e+00   1.0731646698411041e+00   1.0891041365926455e+00   1.0513852732994582e+00   1.0653324270561075e+00   1.0159770453716419e+00   1.0248113131396666e+00   1.0233292972822599e+00   1.0135563381014474e+00   1.0735095852523511e+00   1.0617124486579936e+00   1.0892040188249630e+00   1.0984101404514557e+00   1.0718367526527337e+00   1.0970870281574125e+00   1.0489421320519479e+00   1.0757785192438811e+00   1.0318484252249214e+00   1.0502030275377487e+00   1.0233030343750449e+00   1.0312139481209219e+00   1.0219630593987727e+00   1.0235998448580541e+00   1.0259870892320935e+00   1.0279265341400292e+00   1.0339622859152804e+00   1.0407962185465098e+00   1.0435075986701183e+00   1.0556523236023525e+00   1.0480752778442524e+00   1.0628129749555093e+00   1.0365477297698638e+00   1.0510625132093936e+00   1.0000000000000000e+00   1.0144583077495113e+00   1.0000000000000000e+00   1.0000000000000000e+00   1.0000000000000000e+00   1.0000000000000000e+00   1.0117453379872370e+00   1.0000000000000000e+00   1.0672830132838369e+00   1.0526039122342492e+00   1.0930171332753569e+00   1.0930171332753567e+00   1.0872381349369467e+00   1.1052159073773089e+00   1.0606369350305647e+00   1.0831734347531896e+00   1.0356515318632247e+00   1.0495416288107671e+00   1.0310757246870468e+00   1.0328195940079739e+00   1.0512742665246519e+00   1.0487846179064459e+00   1.0838731333415712e+00   1.0856506447274075e+00   1.1114968582674070e+00   1.1186639852782729e+00   1.1194355978342703e+00   1.1291602068444557e+00   1.0986541051250884e+00   1.1098028025710815e+00   1.0534250468909172e+00   1.0661398295366200e+00   1.0132557654649210e+00   1.0209845971319440e+00   1.0209756482600088e+00   1.0099674269000105e+00   1.0707034725794040e+00   1.0485593892529517e+00   1.1145054346704215e+00   1.1015892792290138e+00   1.1271015209802346e+00   1.1349077602603690e+00   1.1074341933244523e+00   1.1322500643648996e+00   1.0709764752390711e+00   1.0990010840204232e+00   1.0392678203382011e+00   1.0566495447982096e+00   1.0296239696980969e+00   1.0332770958199253e+00   1.0445913217446492e+00   1.0429601244679643e+00   1.0700313171264177e+00   1.0723229553485050e+00   1.0873761655272729e+00   1.0955183260350096e+00   1.0818450895116174e+00   1.0939646080286973e+00   1.0480752793268711e+00   1.0628129762971263e+00   1.0000000000000000e+00   1.0141332280242179e+00   1.0000000000000000e+00   1.0000000000000000e+00   1.0000000000000000e+00   1.0023270678486560e+00   1.0084729896680229e+00   1.0000000000000000e+00   1.0601402619388622e+00   1.0403170546986398e+00   1.1052159073773091e+00   1.0872381349369467e+00   1.1186254514194229e+00   1.1186254514194229e+00   1.0962477208941028e+00   1.1123975599477320e+00   1.0568378826333560e+00   1.0739448957624560e+00   1.0436940384947420e+00   1.0449168273071696e+00   1.0760246412759920e+00   1.0679527332206638e+00   1.1177697771251200e+00   1.1138224376948034e+00   1.1376029798465450e+00   1.1372836235109478e+00   1.1248771670502786e+00   1.1270273072561585e+00   1.0863519256321799e+00   1.0914157950674368e+00   1.0390448065621125e+00   1.0467899947724941e+00   1.0072597236799143e+00   1.0118042548957946e+00   1.0110259080321864e+00   1.0036008809226307e+00   1.0498321607698300e+00   1.0282050573647736e+00   1.1021034369146765e+00   1.0745757423820363e+00   1.1414859217461659e+00   1.1221598832741160e+00   1.1445983019438026e+00   1.1459160937640551e+00   1.1125397571570157e+00   1.1319211921780159e+00   1.0639273966535012e+00   1.0847204239975279e+00   1.0414678282315026e+00   1.0461532564434755e+00   1.0654108576655832e+00   1.0595739486726354e+00   1.0987332424258249e+00   1.0970128173571514e+00   1.1091817423617620e+00   1.1127485160885822e+00   1.0873761659927812e+00   1.0955183267566051e+00   1.0435076004794046e+00   1.0556523246990710e+00   1.0008205595707180e+00   1.0136689788108777e+00   1.0000000000000000e+00   1.0000000000000000e+00   1.0051986424407453e+00   1.0159583598273818e+00   1.0108529793126504e+00   1.0074223845277344e+00   1.0430425715326817e+00   1.0289176453066704e+00   1.0831734347531901e+00   1.0606369350305647e+00   1.1123975599477323e+00   1.0962477208941033e+00   1.1220802691619460e+00   1.1220802691619460e+00   1.0773245673250982e+00   1.0919494373057779e+00   1.0478057188719112e+00   1.0462631661704820e+00   1.0837361036089117e+00   1.0715876190208329e+00   1.1196976008429169e+00   1.1073413030433412e+00   1.1183256004857585e+00   1.1108756733897809e+00   1.0913260664469893e+00   1.0861171767070643e+00   1.0542391622110456e+00   1.0531659534947697e+00   1.0213815523658973e+00   1.0239081340195824e+00   1.0026874048914101e+00   1.0050983349909144e+00   1.0039767574296112e+00   1.0005165962154137e+00   1.0256428292819826e+00   1.0117542903713093e+00   1.0622060949279908e+00   1.0376149851084517e+00   1.1036439016207114e+00   1.0735521347127055e+00   1.1314057794441972e+00   1.1102261960323156e+00   1.1384860303022633e+00   1.1370535508272650e+00   1.0861038559145788e+00   1.1030699955430396e+00   1.0445881091392184e+00   1.0472997940886111e+00   1.0729463991826693e+00   1.0630928769011747e+00   1.1034963238474680e+00   1.0949344342429757e+00   1.0987332349271945e+00   1.0970128196494229e+00   1.0700313181833201e+00   1.0723229484288455e+00   1.0339622863785909e+00   1.0407962191471514e+00   1.0084933454995297e+00   1.0163465947068908e+00   1.0061484776815106e+00   1.0087628741589285e+00   1.0181827495057774e+00   1.0251331530299681e+00   1.0163657471534597e+00   1.0171459491170229e+00   1.0287577181610958e+00   1.0228311595370192e+00   1.0495416288107666e+00   1.0356515318632238e+00   1.0739448957624562e+00   1.0568378826333553e+00   1.0919494373057788e+00   1.0773245673250984e+00   1.0474785386698566e+00   1.0474785386698566e+00   1.0183253356424611e+00   1.0089095347419359e+00   1.0624883498640691e+00   1.0256983232807029e+00   1.0772511670634124e+00   1.0637559992630345e+00   1.0672457056256428e+00   1.0563385725949879e+00   1.0435583464142848e+00   1.0364333192437973e+00   1.0222118582724415e+00   1.0187901853111287e+00   1.0079328384525461e+00   1.0073535569413954e+00   1.0009680491459190e+00   1.0016735353191524e+00   1.0007804615265306e+00   1.0001307608831984e+00   1.0079350454541949e+00   1.0025980163234807e+00   1.0237210566896158e+00   1.0108994751433809e+00   1.0476399153346345e+00   1.0268121794129519e+00   1.0752363893503611e+00   1.0507401694894976e+00   1.0961462772854813e+00   1.0748043733233996e+00   1.0523913296189185e+00   1.0492316796978434e+00   1.0170749733474365e+00   1.0098857116594815e+00   1.0569263637842805e+00   1.0233543250794708e+00   1.0729463411545799e+00   1.0630929459350531e+00   1.0654108568562941e+00   1.0595738365373057e+00   1.0445913176393402e+00   1.0429601280634975e+00   1.0259870893337566e+00   1.0279265345818918e+00   1.0168638100616554e+00   1.0195900255896855e+00   1.0191588138439172e+00   1.0201552952135011e+00   1.0231767229890396e+00   1.0248330857586354e+00   1.0199320832046912e+00   1.0201050947695398e+00   1.0236900881393574e+00   1.0224393098323534e+00   1.0328195940079732e+00   1.0310757246870461e+00   1.0449168273071687e+00   1.0436940384947413e+00   1.0462631661704813e+00   1.0478057188719103e+00   1.0089095347419359e+00   1.0183253356424604e+00   1.0039542928173273e+00   1.0039542928173273e+00   1.0149671818620050e+00   1.0091985883805263e+00   1.0377872747722865e+00   1.0411944793569892e+00   1.0301369852216731e+00   1.0357579259662386e+00   1.0154288160558544e+00   1.0199036248560589e+00   1.0056935474911661e+00   1.0081015209693276e+00   1.0014772711029134e+00   1.0020592311262271e+00   1.0004237362146107e+00   1.0003258996517610e+00   1.0004655079685749e+00   1.0004774836827426e+00   1.0020671100490497e+00   1.0019930392476906e+00   1.0077250204334425e+00   1.0068209793793903e+00   1.0190800602347205e+00   1.0172240095934664e+00   1.0343181935094656e+00   1.0326175399331539e+00   1.0400718942047775e+00   1.0411417271422796e+00   1.0081965414266554e+00   1.0162616146901704e+00   1.0041262600802703e+00   1.0037833721664939e+00   1.0170754441412593e+00   1.0098859067335146e+00   1.0445879365956550e+00   1.0472997177394658e+00   1.0414677925388820e+00   1.0461534103657169e+00   1.0296239772437474e+00   1.0332771119918998e+00   1.0219630608717609e+00   1.0235998514753026e+00   1.0199493328241198e+00   1.0192522519400944e+00   1.0260607754897144e+00   1.0227096984669555e+00   1.0173253979812138e+00   1.0148827916410361e+00   1.0188569980243429e+00   1.0148635035181248e+00   1.0302717421402297e+00   1.0277062774345858e+00   1.0487846179064457e+00   1.0512742665246511e+00   1.0679527332206629e+00   1.0760246412759922e+00   1.0715876190208318e+00   1.0837361036089108e+00   1.0256983232807020e+00   1.0624883498640685e+00   1.0091985883805266e+00   1.0149671818620047e+00   1.0543764799200395e+00   1.0543764799200390e+00   1.0842548193667325e+00   1.1080900072394688e+00   1.0590975575008224e+00   1.0875817620156119e+00   1.0325516037404050e+00   1.0573812243181133e+00   1.0139917609632059e+00   1.0298140293617606e+00   1.0035137140718677e+00   1.0105130115997532e+00   1.0000322992846860e+00   1.0011579453136208e+00   1.0020921155012648e+00   1.0012209711028142e+00   1.0096310409741074e+00   1.0101964001826227e+00   1.0236813018030504e+00   1.0279345444872350e+00   1.0439853264091334e+00   1.0531303792927873e+00   1.0657348571868575e+00   1.0797177337073103e+00   1.0727475362289129e+00   1.0890103450279094e+00   1.0281891110259980e+00   1.0684511261062637e+00   1.0081966835857741e+00   1.0162620689868624e+00   1.0523916502692494e+00   1.0492319657077700e+00   1.0861040258538572e+00   1.1030707159167070e+00   1.0639275705237523e+00   1.0847206874065958e+00   1.0392678291292348e+00   1.0566495405699643e+00   1.0233030429317340e+00   1.0312139671043472e+00   1.0145991551452929e+00   1.0144621135013574e+00   1.0228956829727882e+00   1.0145376607307790e+00   1.0036332031276323e+00   1.0003912363462069e+00   1.0154054312094745e+00   1.0057203798422090e+00   1.0469471462958968e+00   1.0388850890503614e+00   1.0856506447274081e+00   1.0838731333415714e+00   1.1138224376948032e+00   1.1177697771251212e+00   1.1073413030433408e+00   1.1196976008429158e+00   1.0637559992630348e+00   1.0772511670634133e+00   1.0411944793569887e+00   1.0377872747722865e+00   1.1080900072394668e+00   1.0842548193667312e+00   1.1554982443626323e+00   1.1554982443626307e+00   1.1299420123205324e+00   1.1546175157398433e+00   1.0891977449374157e+00   1.1253499717695981e+00   1.0470182784703992e+00   1.0770483914533102e+00   1.0156267660131137e+00   1.0331073596374127e+00   1.0015636733142772e+00   1.0065938308011393e+00   1.0070786528847169e+00   1.0047948904947361e+00   1.0302039067022490e+00   1.0275552121680627e+00   1.0655141526307721e+00   1.0674425119414608e+00   1.1039031238892449e+00   1.1115403103614252e+00   1.1304493389706813e+00   1.1415820538964230e+00   1.1211463162373316e+00   1.1382263997616391e+00   1.0727476684978590e+00   1.0890102735246572e+00   1.0400718526432433e+00   1.0411416218609093e+00   1.0961469540106392e+00   1.0748044745590630e+00   1.1384871483699295e+00   1.1370547168795286e+00   1.1125399270524787e+00   1.1319210542543152e+00   1.0709765039630605e+00   1.0990011223756011e+00   1.0318484381214170e+00   1.0502030426002464e+00   1.0035393571992040e+00   1.0093009618733242e+00   1.0110439230648764e+00   1.0000000000000000e+00   1.0000000000000000e+00   1.0000000000000000e+00   1.0147732848042659e+00   1.0000000000000000e+00   1.0686504710774900e+00   1.0548641171673563e+00   1.1186639852782740e+00   1.1114968582674065e+00   1.1372836235109480e+00   1.1376029798465457e+00   1.1108756733897804e+00   1.1183256004857576e+00   1.0563385725949888e+00   1.0672457056256435e+00   1.0357579259662393e+00   1.0301369852216733e+00   1.0875817620156121e+00   1.0590975575008241e+00   1.1546175157398435e+00   1.1299420123205342e+00   1.1783864502730439e+00   1.1783864502730459e+00   1.1524070146680068e+00   1.1790139211958945e+00   1.0952790723411825e+00   1.1316916546459284e+00   1.0387369452024129e+00   1.0674486193481596e+00   1.0084333126847782e+00   1.0194096104225197e+00   1.0181614294352976e+00   1.0142359435010215e+00   1.0610019854190156e+00   1.0532205696889956e+00   1.1159657261255997e+00   1.1124109321951241e+00   1.1587330832050469e+00   1.1605917318685415e+00   1.1671682766210985e+00   1.1736750713793378e+00   1.1304493485484177e+00   1.1415820460990596e+00   1.0657347454130799e+00   1.0797177467735637e+00   1.0343183010675321e+00   1.0326175047967605e+00   1.0752366402638263e+00   1.0507402863920634e+00   1.1314056914635353e+00   1.1102264318945656e+00   1.1445980288119948e+00   1.1459157993196118e+00   1.1074342063005869e+00   1.1322501390608577e+00   1.0489421350572512e+00   1.0757785133325781e+00   1.0000000000000000e+00   1.0099887077141476e+00   1.0000000000000000e+00   1.0000000000000000e+00   1.0000000000000000e+00   1.0000000000000000e+00   1.0202627345626958e+00   1.0005013079706153e+00   1.0866432734453073e+00   1.0702804877770418e+00   1.1291602068444540e+00   1.1194355978342669e+00   1.1270273072561583e+00   1.1248771670502773e+00   1.0861171767070656e+00   1.0913260664469902e+00   1.0364333192437991e+00   1.0435583464142870e+00   1.0199036248560585e+00   1.0154288160558544e+00   1.0573812243181162e+00   1.0325516037404063e+00   1.1253499717696029e+00   1.0891977449374197e+00   1.1790139211958977e+00   1.1524070146680110e+00   1.1862234776277836e+00   1.1862234776277845e+00   1.1409657643667059e+00   1.1673183135870362e+00   1.0709866708393097e+00   1.1038951885255224e+00   1.0226445675530389e+00   1.0386356229538223e+00   1.0361682410313837e+00   1.0296745145012998e+00   1.0944609497970303e+00   1.0820957323364975e+00   1.1531909394964015e+00   1.1450885774198976e+00   1.1784041141550441e+00   1.1754523991829366e+00   1.1587330858748679e+00   1.1605917336848375e+00   1.1039031196148903e+00   1.1115403156381676e+00   1.0439853356641762e+00   1.0531303793473092e+00   1.0190800749562303e+00   1.0172240167778910e+00   1.0476399190996524e+00   1.0268121803711061e+00   1.1036439402844909e+00   1.0735521799516414e+00   1.1414859801215003e+00   1.1221598782215028e+00   1.1271015639851365e+00   1.1349078094947882e+00   1.0718367576512799e+00   1.0970870234571906e+00   1.0000000000000000e+00   1.0200274040059154e+00   1.0000000000000000e+00   1.0000000000000000e+00   1.0000000000000000e+00   1.0113586312003118e+00   1.0283948569510715e+00   1.0064420523762838e+00   1.0891041365926424e+00   1.0731646698411013e+00   1.1098028025710764e+00   1.0986541051250835e+00   1.0914157950674346e+00   1.0863519256321759e+00   1.0531659534947715e+00   1.0542391622110456e+00   1.0187901853111314e+00   1.0222118582724442e+00   1.0081015209693285e+00   1.0056935474911679e+00   1.0298140293617626e+00   1.0139917609632074e+00   1.0770483914533133e+00   1.0470182784704027e+00   1.1316916546459304e+00   1.0952790723411843e+00   1.1673183135870371e+00   1.1409657643667068e+00   1.1627330331762171e+00   1.1627330331762171e+00   1.1091362100455076e+00   1.1358902273606362e+00   1.0412651215220214e+00   1.0638664024145799e+00   1.0531699721620584e+00   1.0452164561150754e+00   1.1153026580160268e+00   1.0987945885089343e+00   1.1559902609932173e+00   1.1445965391392612e+00   1.1531909426639742e+00   1.1450885809768039e+00   1.1159657299515722e+00   1.1124109370411595e+00   1.0655141576308584e+00   1.0674425160677712e+00   1.0236813063054482e+00   1.0279345485330038e+00   1.0077250232878474e+00   1.0068209813392370e+00   1.0237210703671895e+00   1.0108994782897855e+00   1.0622061113877950e+00   1.0376149988491894e+00   1.1021034346815157e+00   1.0745757466610710e+00   1.1145054339452340e+00   1.1015892881323899e+00   1.0892040320224856e+00   1.0984101517508080e+00   1.0047295212392819e+00   1.0365321874484468e+00   1.0000000000000000e+00   1.0000000000000000e+00   1.0000000000000000e+00   1.0502248510019534e+00   1.0285962582986088e+00   1.0028725220132362e+00   1.0653324270561060e+00   1.0513852732994560e+00   1.0661398295366169e+00   1.0534250468909159e+00   1.0467899947724915e+00   1.0390448065621105e+00   1.0239081340195824e+00   1.0213815523658965e+00   1.0073535569413967e+00   1.0079328384525466e+00   1.0020592311262282e+00   1.0014772711029138e+00   1.0105130115997556e+00