<?xml version="1.0"?>
<VTKFile type="UnstructuredGrid"  version="0.1"  >
<UnstructuredGrid>
<Piece  NumberOfPoints="961" NumberOfCells="1800">
<Points>
<DataArray  type="Float64"  NumberOfComponents="3"  format="ascii">0 0 0  0.03333333333333333 0 0  0.06666666666666667 0 0  0.1 0 0  0.1333333333333333 0 0  0.1666666666666667 0 0  0.2 0 0  0.2333333333333333 0 0  0.2666666666666667 0 0  0.3 0 0  0.3333333333333333 0 0  0.3666666666666666 0 0  0.4 0 0  0.4333333333333333 0 0  0.4666666666666667 0 0  0.5 0 0  0.5333333333333333 0 0  0.5666666666666667 0 0  0.6 0 0  0.6333333333333333 0 0  0.6666666666666666 0 0  0.7 0 0  0.7333333333333333 0 0  0.7666666666666667 0 0  0.8 0 0  0.8333333333333334 0 0  0.8666666666666667 0 0  0.8999999999999999 0 0  0.9333333333333333 0 0  0.9666666666666666 0 0  1 0 0  0 0.03333333333333333 0  0.04056116884075801 0.04056116884075803 0  0.07468131500557076 0.03788509139854972 0  0.1066581756779132 0.0342499589042216 0  0.1382688047634697 0.03108586395787044 0  0.1699939253640395 0.02863255456669105 0  0.2019324464074241 0.0269831333626126 0  0.2340424839507743 0.02622313685183413 0  0.2662128586118256 0.02642399407953334 0  0.298309683302817 0.02762270605211151 0  0.3302269489831967 0.02983992291531539 0  0.3619300464920002 0.03314397962371406 0  0.3935247035991392 0.03774216622233274 0  0.4254840656696442 0.04406049574799966 0  0.4594332777380251 0.05238011535763752 0  0.4992526697288759 0.05887267958708878 0  0.5402861044910751 0.05264480292424737 0  0.5745625941146861 0.04401036099023956 0  0.6065997577042309 0.03761962310966879 0  0.6382378010065667 0.03302229956330371 0  0.6699771875941699 0.02974004407755348 0  0.7019241559960012 0.02755467873362673 0  0.7340400879283717 0.02639473928913911 0  0.766215639879985 0.02623521200469882 0  0.7983184027768749 0.027032911908529 0  0.8302442298137808 0.02871163805781227 0  0.8619618570536944 0.03118181361764081 0  0.8935845648507317 0.03433811934628139 0  0.9256059165752717 0.03789085445820939 0  0.9597158302165629 0.04028416942250759 0  1 0.03333333333333333 0  0 0.06666666666666667 0  0.0378850913985497 0.07468131500557079 0  0.07289892415161701 0.07289892415161708 0  0.1057259013948188 0.06774085229988698 0  0.1376868688087914 0.06223893531364538 0  0.1695578531057239 0.05755514463845341 0  0.2016596718900651 0.05423739996201963 0  0.2340212731908307 0.05264627374685886 0  0.2664805503151177 0.05301333570480422 0  0.2988031222093331 0.0553954479008983 0  0.3308385154256012 0.05970544388666607 0  0.3626239133920769 0.06581667777211969 0  0.3944710626086814 0.0735944533119319 0  0.4271116200448355 0.08265991466125976 0  0.4618007455086326 0.09150602103348725 0  0.4994620733479284 0.09600026113030291 0  0.5375786651445981 0.09182301803850945 0  0.572731099820856 0.08282297835816251 0  0.6056326086871718 0.07358486948664378 0  0.6376341620236039 0.06571926653570014 0  0.6695284685908279 0.05958483670897881 0  0.7016448855800584 0.05529584652935243 0  0.7340169862835079 0.05296501152896338 0  0.7664855734422796 0.05266104367993243 0  0.798818695469232 0.05430264284021184 0  0.8308688044207417 0.0576398334929575 0  0.8626777429639479 0.06229896284366141 0  0.8945658441948338 0.06771541246401637 0  0.9272813886473716 0.07271861109588958 0  0.962109145249898 0.07439408334809976 0  1 0.06666666666666667 0  0 0.1 0  0.03424995890422158 0.1066581756779133 0  0.06774085229988693 0.105725901394819 0  0.100503704548512 0.1005037045485121 0  0.13304799821641 0.09371800526434546 0  0.1658781310289383 0.08718092929890765 0  0.1992891707616961 0.08214323431316531 0  0.2332698819948437 0.07955836471901558 0  0.2674663976175713 0.08003993078001531 0  0.3013522070686748 0.08363503948075102 0  0.3346098121051623 0.08987761952581175 0  0.3672541685065123 0.0980688151814921 0  0.3995869803489783 0.1073660565722892 0  0.4321162088143509 0.1165965222204962 0  0.4653952601186711 0.1239399874310303 0  0.4996035536511466 0.1269925492343515 0  0.5339838266135216 0.1242027063748005 0  0.5675733778590236 0.1168832537857036 0  0.6004012468941912 0.1075323200415942 0  0.6329864919936894 0.09809485349992163 0  0.6658425585378093 0.0898074303878095 0  0.6992709090519518 0.08353635921365574 0  0.733264579072499 0.07997992983589583 0  0.7674727441193184 0.07956945594305051 0  0.8013715350612129 0.08219392411270915 0  0.8346464921668566 0.08720534096207126 0  0.8673168185479949 0.09365158600203059 0  0.8996905477148202 0.1003094518173349 0  0.9322845871969834 0.1054341555098116 0  0.9656618804433833 0.1064154350242107 0  1 0.1 0  0 0.1333333333333333 0  0.03108586395787044 0.1382688047634698 0  0.06223893531364535 0.1376868688087916 0  0.09371800526434539 0.1330479982164101 0  0.1259954554893871 0.1259954554893872 0  0.1595905367488913 0.1181778956588512 0  0.1948685551768078 0.111364054487178 0  0.2317292592604626 0.1074677428270637 0  0.2692351272925977 0.1080023818194907 0  0.3058851075714773 0.1129535007993127 0  0.3408805688005763 0.1209305292340927 0  0.3742061569690091 0.130295802364564 0  0.4062564222142972 0.1396378889750456 0  0.4375605138991094 0.14773029121168 0  0.4686106104082077 0.1533912531287515 0  0.4997086798822742 0.1555404879728199 0  0.5308784687275204 0.1536271189785971 0  0.5620990029568975 0.1480850930114729 0  0.5936269446340163 0.1399747228935925 0  0.6259380681761241 0.1305134555380269 0  0.6595561452105393 0.1209895328203387 0  0.6948504974977825 0.1128940486357341 0  0.7317240373918418 0.1079344441418453 0  0.7692416718468055 0.1074720207992137 0  0.8059044626539827 0.1113639672280207 0  0.8409162062825669 0.1180662636230795 0  0.8742646833307971 0.1257353157373958 0  0.906348413351473 0.1326831808808583 0  0.9377010367587536 0.1373222567147254 0  0.9688181861874237 0.1380381428056807 0  1 0.1333333333333333 0  0 0.1666666666666667 0  0.02863255456669106 0.1699939253640396 0  0.05755514463845342 0.1695578531057241 0  0.08718092929890765 0.1658781310289386 0  0.1181778956588511 0.1595905367488915 0  0.1515107269785204 0.1515107269785206 0  0.1883234637356572 0.1431252349164215 0  0.2291662117049689 0.1373670423772972 0  0.2720311515613461 0.137888199073351 0  0.3124208045379911 0.1445028483809603 0  0.3488222046969875 0.1537488949599933 0  0.3818907248715183 0.1630408600200563 0  0.4127289497425461 0.1711330353257937 0  0.4422624854416263 0.1774215879819516 0  0.4711475161194399 0.1814854528141882 0  0.4998045783587898 0.1829748538505928 0  0.5284919008490381 0.1817164069691737 0  0.5574580683163326 0.1778265573954479 0  0.5871162108841768 0.1716206502165906 0  0.6181361514482677 0.1634976448953541 0  0.6514851101347038 0.1540484657901367 0  0.6883097131468678 0.1445622144564018 0  0.7291623308375047 0.137812762265435 0  0.7720366398776244 0.1373636583900815 0  0.8124360914401302 0.1429958315990673 0  0.8488492561093992 0.1511507416582413 0  0.8819337349699262 0.1590837926011368 0  0.9127946582539789 0.1653535072666964 0  0.9423601660992332 0.1691311952972089 0  0.9712883617667475 0.1697557700691717 0  1 0.1666666666666667 0  0 0.2 0  0.0269831333626126 0.2019324464074242 0  0.05423739996201964 0.2016596718900654 0  0.08214323431316534 0.1992891707616966 0  0.1113640544871781 0.1948685551768082 0  0.1431252349164215 0.1883234637356576 0  0.1797689989434918 0.1797689989434921 0  0.2249088807770493 0.1715912642403951 0  0.2764900178961598 0.1719860234448463 0  0.3207228607997246 0.1804289936688983 0  0.3569929248464773 0.1894274383041389 0  0.3886177326017112 0.1967994026151706 0  0.4177767670854285 0.2024376608361144 0  0.4456517245556773 0.2064846916938487 0  0.4728986054787761 0.2089872796775517 0  0.4999011777108771 0.2099113245760549 0  0.5269149337899105 0.2092215468293405 0  0.554192515665182 0.2069285341962971 0  0.5821151285656742 0.2030471705092848 0  0.6113473155809517 0.1975075848854637 0  0.6431157873556046 0.1901121396074458 0  0.6797642384438114 0.1808445587189133 0  0.7249079010304297 0.1719400639012831 0  0.776492956314299 0.1715412924064366 0  0.8207295212496828 0.1792704704602116 0  0.857004164091315 0.1875639062255841 0  0.888636031015961 0.1940955365162468 0  0.9178060751739686 0.1986284646020244 0  0.9456973568644873 0.2011813043873882 0  0.9729670879822117 0.201681597169099 0  1 0.2 0  0 0.2333333333333333 0  0.02622313685183416 0.2340424839507745 0  0.05264627374685892 0.2340212731908312 0  0.07955836471901565 0.2332698819948443 0  0.1074677428270638 0.2317292592604633 0  0.1373670423772972 0.2291662117049694 0  0.1715912642403951 0.2249088807770498 0  0.2176817007074358 0.2176817007074361 0  0.2832831536148135 0.2169713748987893 0  0.3284655232388772 0.2240048432542583 0  0.3626466466380868 0.2286820403971757 0  0.3925404133286839 0.2317469579851834 0  0.420443581853287 0.2338756718152661 0  0.4473506800241223 0.2353492788309585 0  0.4737727442253365 0.2362672135934915 0  0.5000010680942778 0.2366522521501925 0  0.5262314755000547 0.236502412881882 0  0.5526589248174787 0.2358111286288176 0  0.5795728756244524 0.2345531410179603 0  0.6074821246698332 0.232635158745346 0  0.6373796833683942 0.229787348741653 0  0.6716007213263315 0.2252972401533358 0  0.717686228604887 0.217814973106939 0  0.783281257095819 0.2167186555352267 0  0.8284586769236357 0.2235070446962571 0  0.862636336331838 0.2279633608361407 0  0.8925279783234336 0.2307583284186393 0  0.9204305439372875 0.2325272560207491 0  0.947338956334335 0.2335144266366488 0  0.9737647880171021 0.2337843601566683 0  1 0.2333333333333333 0  0 0.2666666666666667 0  0.02642399407953338 0.2662128586118259 0  0.05301333570480431 0.2664805503151181 0  0.08003993078001546 0.267466397617572 0  0.1080023818194908 0.2692351272925984 0  0.1378881990733511 0.2720311515613468 0  0.1719860234448463 0.2764900178961605 0  0.2169713748987892 0.2832831536148142 0  0.2821932181168621 0.2821932181168625 0  0.328082071996367 0.2747126528471686 0  0.362220600834497 0.2702228996953917 0  0.3921102240716565 0.2673744271203733 0  0.4200770714951054 0.265454687353212 0  0.4471057890940069 0.
[...]
<CellData  Scalars="q"> 
<DataArray  type="Float64"  Name="q"  format="ascii">1.0139954588202493e+00   1.0139954588202493e+00   1.0000000000000000e+00   1.0000000000000000e+00   1.0000000000000000e+00   1.0000000000000000e+00   1.0000000000000000e+00   1.0000000000000000e+00   1.0022836116625837e+00   1.0000000000000000e+00   1.0157698065041396e+00   1.0051105128450550e+00   1.0248475265383701e+00   1.0179531498352046e+00   1.0245544884599289e+00   1.0228947261986434e+00   1.0147153382121306e+00   1.0171110012642020e+00   1.0003765035573688e+00   1.0035668454187054e+00   1.0000000000000000e+00   1.0000000000000000e+00   1.0000000000000000e+00   1.0000000000000000e+00   1.0109359759816052e+00   1.0000000000000000e+00   1.0492464557976340e+00   1.0000000000000000e+00   1.1005737996403515e+00   1.0308874249229976e+00   1.0800612944789878e+00   1.0549301787365228e+00   1.0265882652892193e+00   1.0199777182553442e+00   1.0000000000000000e+00   1.0000000000000000e+00   1.0000000000000000e+00   1.0000000000000000e+00   1.0000000000000000e+00   1.0000000000000000e+00   1.0109241002973852e+00   1.0000000000000000e+00   1.0226417771095657e+00   1.0143593995424540e+00   1.0257632683659745e+00   1.0224337456009209e+00   1.0189290661393442e+00   1.0198994783882624e+00   1.0060542611693513e+00   1.0086255136059896e+00   1.0000000000000000e+00   1.0000000000000000e+00   1.0000000000000000e+00   1.0000000000000000e+00   1.0000000000000000e+00   1.0000000000000000e+00   1.0188193662411777e+00   1.0000000000000000e+00   1.0037315861862652e+00   1.0225268744515910e+00   1.0000000000000000e+00   1.0000000000000000e+00   1.0012935848323319e+00   1.0012935848323319e+00   1.0000000000000000e+00   1.0158111330270867e+00   1.0000000000000000e+00   1.0115592511509197e+00   1.0000000000000000e+00   1.0083416644956837e+00   1.0072856573104916e+00   1.0106775320509902e+00   1.0168879205600398e+00   1.0161026596119493e+00   1.0198134553279832e+00   1.0196164421096956e+00   1.0146399038712368e+00   1.0185623092649270e+00   1.0056034563758138e+00   1.0151669456235592e+00   1.0000000000000000e+00   1.0145440947905024e+00   1.0003863040917254e+00   1.0199263394514078e+00   1.0061578280375774e+00   1.0278451939066668e+00   1.0027402910402734e+00   1.0277843265932585e+00   1.0000000000000000e+00   1.0065027096391022e+00   1.0167705317659206e+00   1.0053487891969553e+00   1.0220577428477426e+00   1.0341639330608514e+00   1.0045472091524807e+00   1.0356851987365254e+00   1.0000000000000000e+00   1.0196909606996052e+00   1.0000000000000000e+00   1.0098240312087623e+00   1.0034563174635995e+00   1.0091460786499049e+00   1.0143784048253290e+00   1.0142279091481770e+00   1.0196594207588061e+00   1.0189466931710078e+00   1.0166109918257282e+00   1.0192835694836622e+00   1.0083412418072353e+00   1.0160962675792182e+00   1.0007577943553780e+00   1.0134663986955910e+00   1.0000000000000000e+00   1.0139162686640832e+00   1.0000000000000000e+00   1.0141946582815080e+00   1.0003838510138086e+00   1.0057461303821307e+00   1.0188193671453063e+00   1.0000000000000000e+00   1.0000000000000000e+00   1.0000000000000000e+00   1.0158111330270865e+00   1.0000000000000000e+00   1.0526151293078949e+00   1.0526151293078947e+00   1.0519273478050699e+00   1.0664659334340518e+00   1.0398141931566198e+00   1.0594178068441524e+00   1.0284933214225385e+00   1.0424632634489461e+00   1.0224181163396455e+00   1.0282569519374323e+00   1.0220171820151711e+00   1.0232045024037049e+00   1.0272545075657691e+00   1.0297249475916834e+00   1.0383535862122821e+00   1.0462663258442095e+00   1.0541652168545967e+00   1.0677705947880936e+00   1.0693155507045100e+00   1.0855300194157969e+00   1.0719326905373214e+00   1.0878058641665262e+00   1.0501244989063212e+00   1.0640962740801601e+00   1.0150116728450100e+00   1.0240318966797610e+00   1.0221795775591236e+00   1.0128275923859904e+00   1.0715028808191567e+00   1.0599917087408426e+00   1.0875832475341762e+00   1.0966982110661880e+00   1.0708397975998989e+00   1.0957704569305988e+00   1.0483078325118942e+00   1.0748248427294453e+00   1.0313824512600018e+00   1.0495186779199974e+00   1.0228854742922220e+00   1.0306781474230513e+00   1.0215490844403345e+00   1.0231167662905405e+00   1.0255604712625832e+00   1.0274156124967324e+00   1.0335054092435385e+00   1.0402088119875874e+00   1.0429869132357064e+00   1.0549723083740017e+00   1.0474780946028406e+00   1.0620766241455255e+00   1.0360112957849037e+00   1.0504027740031048e+00   1.0000000000000000e+00   1.0141946595224904e+00   1.0000000000000000e+00   1.0000000000000000e+00   1.0000000000000000e+00   1.0000000000000000e+00   1.0115592511509190e+00   1.0000000000000000e+00   1.0664659334340518e+00   1.0519273478050695e+00   1.0919117148109398e+00   1.0919117148109401e+00   1.0860738697360812e+00   1.1037965982697397e+00   1.0596634344999025e+00   1.0818482860466385e+00   1.0348759983297020e+00   1.0485084478851849e+00   1.0303315421227381e+00   1.0319426483368828e+00   1.0503371756616608e+00   1.0477282782936497e+00   1.0826602487970847e+00   1.0842556514739323e+00   1.1100621861461286e+00   1.1170339784550385e+00   1.1179027484492647e+00   1.1275093603979776e+00   1.0972520334206357e+00   1.1083619536705123e+00   1.0524477654008235e+00   1.0651464514145610e+00   1.0128104002758387e+00   1.0205011185718387e+00   1.0204478222549020e+00   1.0096434503194316e+00   1.0695744938192546e+00   1.0477184317102179e+00   1.1129987154746710e+00   1.1002267953940708e+00   1.1254644534753100e+00   1.1331380609235695e+00   1.1059580029417244e+00   1.1304098351821517e+00   1.0698404509101209e+00   1.0974123725061835e+00   1.0384376154114852e+00   1.0555005000997815e+00   1.0289083639383720e+00   1.0323984215040032e+00   1.0437654921088901e+00   1.0420087124727679e+00   1.0690391317722470e+00   1.0711516595006452e+00   1.0863153156278309e+00   1.0942569994715354e+00   1.0808936076086757e+00   1.0928504532574856e+00   1.0474780956967671e+00   1.0620766252539604e+00   1.0000000000000000e+00   1.0139162700324129e+00   1.0000000000000000e+00   1.0000000000000000e+00   1.0000000000000000e+00   1.0022836116625835e+00   1.0083416644956831e+00   1.0000000000000000e+00   1.0594178068441522e+00   1.0398141931566194e+00   1.1037965982697395e+00   1.0860738697360812e+00   1.1169219581898977e+00   1.1169219581898977e+00   1.0944845984632374e+00   1.1104959570347845e+00   1.0551887798723301e+00   1.0721253276860252e+00   1.0422477451413679e+00   1.0433039257461962e+00   1.0742605215845349e+00   1.0659556244105710e+00   1.1157832057056161e+00   1.1114618668987868e+00   1.1356437158870458e+00   1.1350974052806253e+00   1.1232634072596153e+00   1.1252883432902909e+00   1.0852417537593162e+00   1.0902540618977938e+00   1.0384891853908915e+00   1.0461813312401855e+00   1.0070890675311412e+00   1.0116105321911735e+00   1.0108202498292376e+00   1.0035147044890516e+00   1.0491566971861805e+00   1.0278277858345470e+00   1.1007836419081922e+00   1.0736250235566074e+00   1.1395039319535161e+00   1.1204779967996596e+00   1.1424739621859157e+00   1.1437876429914970e+00   1.1104891966266919e+00   1.1296881351254680e+00   1.0621249418941745e+00   1.0826806695110207e+00   1.0400782277671814e+00   1.0445053057363856e+00   1.0638664245923779e+00   1.0577702413619927e+00   1.0970850083862564e+00   1.0949925945687911e+00   1.1076820415692736e+00   1.1109852160834777e+00   1.0863153165175108e+00   1.0942570007758845e+00   1.0429869147802946e+00   1.0549723097688783e+00   1.0007577952186681e+00   1.0134663996618056e+00   1.0000000000000000e+00   1.0000000000000000e+00   1.0051105128450546e+00   1.0157698065041396e+00   1.0106775320509893e+00   1.0072856573104909e+00   1.0424632634489455e+00   1.0284933214225376e+00   1.0818482860466387e+00   1.0596634344999027e+00   1.1104959570347845e+00   1.0944845984632383e+00   1.1180951304869149e+00   1.1180951304869153e+00   1.0733478952695601e+00   1.0872067191797405e+00   1.0453342112745061e+00   1.0429080167926390e+00   1.0812166292790781e+00   1.0680143032292277e+00   1.1169790009077485e+00   1.1043678200601859e+00   1.1163439393774675e+00   1.1085883218679680e+00   1.0900350013203317e+00   1.0847477557233884e+00   1.0535499589111765e+00   1.0524481314430540e+00   1.0211145032101241e+00   1.0236113450199000e+00   1.0026433844329494e+00   1.0050327605705009e+00   1.0039236073458619e+00   1.0005087108411865e+00   1.0253317635575721e+00   1.0116143697912725e+00   1.0614015540298971e+00   1.0371222474916180e+00   1.1020251416837086e+00   1.0724212667196089e+00   1.1291591229798423e+00   1.1082023409160398e+00   1.1340530654412164e+00   1.1326171876533302e+00   1.0818252258754821e+00   1.0978850930172246e+00   1.0422816593029316e+00   1.0439305551954858e+00   1.0706992176939278e+00   1.0598507764983147e+00   1.1011287649182717e+00   1.0922673482074388e+00   1.0970850058616850e+00   1.0949925982400628e+00   1.0690391338532856e+00   1.0711516578901512e+00   1.0335054103465209e+00   1.0402088135873162e+00   1.0083412419682745e+00   1.0160962679265637e+00   1.0060542605039635e+00   1.0086255130700101e+00   1.0179531498352048e+00   1.0248475265383701e+00   1.0161026596119493e+00   1.0168879205600398e+00   1.0282569519374318e+00   1.0224181163396451e+00   1.0485084478851856e+00   1.0348759983297022e+00   1.0721253276860274e+00   1.0551887798723321e+00   1.0872067191797417e+00   1.0733478952695621e+00   1.0445158167355704e+00   1.0445158167355710e+00   1.0167556959029243e+00   1.0082586236732731e+00   1.0585815038511313e+00   1.0236223005944554e+00   1.0748974558450890e+00   1.0604861208838818e+00   1.0656768326188126e+00   1.0546225355740353e+00   1.0427844702490643e+00   1.0356277354155439e+00   1.0218855316130413e+00   1.0184572043434468e+00   1.0078297871716000e+00   1.0072442661326608e+00   1.0009553886330533e+00   1.0016502078740088e+00   1.0007713566202625e+00   1.0001275560343865e+00   1.0078295873138865e+00   1.0025577246045154e+00   1.0233458197740388e+00   1.0107048338432685e+00   1.0466922764821216e+00   1.0262334042515784e+00   1.0733944507041115e+00   1.0492518217218085e+00   1.0913083463445827e+00   1.0709759823189589e+00   1.0492227749740628e+00   1.0462276395378571e+00   1.0155923412808079e+00   1.0091981169678022e+00   1.0532728802120730e+00   1.0214060002998027e+00   1.0706991890248794e+00   1.0598508203337549e+00   1.0638664277283962e+00   1.0577701862113968e+00   1.0437654919773465e+00   1.0420087173251216e+00   1.0255604725122307e+00   1.0274156143103685e+00   1.0166109919306248e+00   1.0192835702421030e+00   1.0189290655831404e+00   1.0198994783690813e+00   1.0228947261986432e+00   1.0245544884599287e+00   1.0196164421096956e+00   1.0198134553279830e+00   1.0232045024037051e+00   1.0220171820151711e+00   1.0319426483368832e+00   1.0303315421227384e+00   1.0433039257461978e+00   1.0422477451413688e+00   1.0429080167926408e+00   1.0453342112745074e+00   1.0082586236732738e+00   1.0167556959029254e+00   1.0036524139120155e+00   1.0036524139120155e+00   1.0135848733828448e+00   1.0085518573809598e+00   1.0356882754161241e+00   1.0381022649832095e+00   1.0290167643373549e+00   1.0343724402545873e+00   1.0149878740201508e+00   1.0193026592011432e+00   1.0055512682312790e+00   1.0078907786507834e+00   1.0014441194269437e+00   1.0020086390930774e+00   1.0004150298243195e+00   1.0003174827147130e+00   1.0004542962482623e+00   1.0004681666616628e+00   1.0020150361991711e+00   1.0019519093716731e+00   1.0075182576087287e+00   1.0066598577922248e+00   1.0184860847471309e+00   1.0167480100791864e+00   1.0329714546458946e+00   1.0314350360908746e+00   1.0369950816895956e+00   1.0388724203193045e+00   1.0075869729633316e+00   1.0147907273467243e+00   1.0038161878273759e+00   1.0034898372981893e+00   1.0155925670461590e+00   1.0091982073621861e+00   1.0422815736598690e+00   1.0439305021482022e+00   1.0400782111677784e+00   1.0445053944880955e+00   1.0289083702263901e+00   1.0323984323218360e+00   1.0215490866666976e+00   1.0231167715208689e+00   1.0196594222956303e+00   1.0189466958676154e+00   1.0257632689844027e+00   1.0224337470471920e+00   1.0171110012642022e+00   1.0147153382121308e+00   1.0185623092649272e+00   1.0146399038712377e+00   1.0297249475916839e+00   1.0272545075657700e+00   1.0477282782936506e+00   1.0503371756616622e+00   1.0659556244105726e+00   1.0742605215845367e+00   1.0680143032292286e+00   1.0812166292790795e+00   1.0236223005944551e+00   1.0585815038511308e+00   1.0085518573809593e+00   1.0135848733828439e+00   1.0511607713938032e+00   1.0511607713938027e+00   1.0801079263672273e+00   1.1027836412718259e+00   1.0574320594999054e+00   1.0854890610671486e+00   1.0318835033427913e+00   1.0562723295842908e+00   1.0137529859967416e+00   1.0293466755952805e+00   1.0034619698794847e+00   1.0103712552780124e+00   1.0000317290333194e+00   1.0011438593702362e+00   1.0020633480417560e+00   1.0012046245113682e+00   1.0094885752378018e+00   1.0100599702299782e+00   1.0232720247485674e+00   1.0275209583618010e+00   1.0430446007982805e+00   1.0521962915067653e+00   1.0638043707811333e+00   1.0778926493208252e+00   1.0691314857556020e+00   1.0863617865744508e+00   1.0259802189550478e+00   1.0642769759982023e+00   1.0075870360129029e+00   1.0147909459739459e+00   1.0492229284154908e+00   1.0462277753028426e+00   1.0818253080135773e+00   1.0978854634802615e+00   1.0621250388523953e+00   1.0826808216885380e+00   1.0384376220563207e+00   1.0555004993762143e+00   1.0228854804607785e+00   1.0306781593907357e+00   1.0143784079501790e+00   1.0142279118598758e+00   1.0226417790085691e+00   1.0143594018511046e+00   1.0035668454187063e+00   1.0003765035573691e+00   1.0151669456235604e+00   1.0056034563758149e+00   1.0462663258442115e+00   1.0383535862122835e+00   1.0842556514739345e+00   1.0826602487970869e+00   1.1114618668987888e+00   1.1157832057056181e+00   1.1043678200601861e+00   1.1169790009077494e+00   1.0604861208838794e+00   1.0748974558450874e+00   1.0381022649832072e+00   1.0356882754161210e+00   1.1027836412718259e+00   1.0801079263672253e+00   1.1505564542667277e+00   1.1505564542667277e+00   1.1275638704000075e+00   1.1519670510910152e+00   1.0878123224503342e+00   1.1233588076337000e+00   1.0463821192885663e+00   1.0760135783907141e+00   1.0154256913052686e+00   1.0326797236934577e+00   1.0015343407913126e+00   1.0064909801808581e+00   1.0069779080747125e+00   1.0047077284768886e+00   1.0298085020002246e+00   1.0271857514621130e+00   1.0646020644139897e+00   1.0665438658584769e+00   1.1022300560701401e+00   1.1099159791195008e+00   1.1277640094630059e+00   1.1391796618227619e+00   1.1178326009471387e+00   1.1351045502346082e+00   1.0691315652606024e+00   1.0863617516557151e+00   1.0369950484447228e+00   1.0388723715446859e+00   1.0913086947336057e+00   1.0709760276765206e+00   1.1340536749778343e+00   1.1326178221329164e+00   1.1104892995574291e+00   1.1296880765795034e+00   1.0698404683666398e+00   1.0974123950215451e+00   1.0313824596471164e+00   1.0495186876195786e+00   1.0034563197151276e+00   1.0091460804600934e+00   1.0109241022648685e+00   1.0000000000000000e+00   1.0000000000000000e+00   1.0000000000000000e+00   1.0145440947905038e+00   1.0000000000000000e+00   1.0677705947880951e+00   1.0541652168545981e+00   1.1170339784550416e+00   1.1100621861461317e+00   1.1350974052806277e+00   1.1356437158870498e+00   1.1085883218679680e+00   1.1163439393774692e+00   1.0546225355740335e+00   1.0656768326188120e+00   1.0343724402545833e+00   1.0290167643373520e+00   1.0854890610671450e+00   1.0574320594999007e+00   1.1519670510910134e+00   1.1275638704000039e+00   1.1757144571377594e+00   1.1757144571377578e+00   1.1502278155282637e+00   1.1764132242421685e+00   1.0939843768807829e+00   1.1298843828703042e+00   1.0381624060894952e+00   1.0664448173220704e+00   1.0082376774707500e+00   1.0190160749998460e+00   1.0178361040166757e+00   1.0139052938516466e+00   1.0601457651550092e+00   1.0523951764507997e+00   1.1144002521084500e+00   1.1108539556584249e+00   1.1564649204258468e+00   1.1583858181195206e+00   1.1644529910008417e+00   1.1711077957553444e+00   1.1277640177144588e+00   1.1391796595662509e+00   1.0638043168089404e+00   1.0778926606597850e+00   1.0329715175218201e+00   1.0314350199323412e+00   1.0733945936362259e+00   1.0492518860028222e+00   1.1291590907015121e+00   1.1082024783777540e+00   1.1424738211643661e+00   1.1437874906020273e+00   1.1059580115685195e+00   1.1304098762761550e+00   1.0483078343592644e+00   1.0748248396258564e+00   1.0000000000000000e+00   1.0098240335869808e+00   1.0000000000000000e+00   1.0000000000000000e+00   1.0000000000000000e+00   1.0000000000000000e+00   1.0199263394514091e+00   1.0003863040917262e+00   1.0855300194158009e+00   1.0693155507045131e+00   1.1275093603979818e+00   1.1179027484492696e+00   1.1252883432902958e+00   1.1232634072596204e+00   1.0847477557233896e+00   1.0900350013203348e+00   1.0356277354155425e+00   1.0427844702490634e+00   1.0193026592011405e+00   1.0149878740201490e+00   1.0562723295842866e+00   1.0318835033427880e+00   1.1233588076336951e+00   1.0878123224503300e+00   1.1764132242421639e+00   1.1502278155282577e+00   1.1835585357976524e+00   1.1835585357976495e+00   1.1388821623065417e+00   1.1648187381360573e+00   1.0696816596651748e+00   1.1021039860371191e+00   1.0219933794560085e+00   1.0376877701388261e+00   1.0353180995856515e+00   1.0287850607671425e+00   1.0929079918621938e+00   1.0804777446142246e+00   1.1509831326305653e+00   1.1428050934104381e+00   1.1759447876058760e+00   1.1729668575877894e+00   1.1564649229949016e+00   1.1583858198254471e+00   1.1022300563865164e+00   1.1099159838022654e+00   1.0430446089437269e+00   1.0521962938769958e+00   1.0184860940362503e+00   1.0167480157189510e+00   1.0466922789601285e+00   1.0262334054316478e+00   1.1020251638182723e+00   1.0724212920332812e+00   1.1395039638802451e+00   1.1204779950608188e+00   1.1254644773887139e+00   1.1331380876911490e+00   1.0708397961049825e+00   1.0957704510456121e+00   1.0000000000000000e+00   1.0196909631522271e+00   1.0000000000000000e+00   1.0000000000000000e+00   1.0000000000000000e+00   1.0109359759816066e+00   1.0278451939066655e+00   1.0061578280375760e+00   1.0878058641665318e+00   1.0719326905373225e+00   1.1083619536705189e+00   1.0972520334206437e+00   1.0902540618977983e+00   1.0852417537593213e+00   1.0524481314430572e+00   1.0535499589111808e+00   1.0184572043434459e+00   1.0218855316130426e+00   1.0078907786507814e+00   1.0055512682312773e+00   1.0293466755952776e+00   1.0137529859967387e+00   1.0760135783907110e+00   1.0463821192885638e+00   1.1298843828703000e+00   1.0939843768807804e+00   1.1648187381360571e+00   1.1388821623065408e+00   1.1597593372752124e+00   1.1597593372752144e+00   1.1059777026577533e+00   1.1321132268924821e+00   1.0395296215338523e+00   1.0610839464183881e+00   1.0515366301347240e+00   1.0430967107328750e+00   1.1128381522746831e+00   1.0961605354147304e+00   1.1534128709737215e+00   1.1417522936846884e+00   1.1509831346068076e+00   1.1428050953937683e+00   1.1144002550763277e+00   1.1108539587795816e+00   1.0646020685517723e+00   1.0665438690264728e+00   1.0232720285665093e+00   1.0275209616243322e+00   1.0075182599619059e+00   1.0066598596307894e+00   1.0233458275867244e+00   1.0107048359265789e+00   1.0614015631402594e+00   1.0371222549199337e+00   1.1007836394212036e+00   1.0736250246308465e+00   1.1129987111515851e+00   1.1002267945135737e+00   1.0875832420305289e+00   1.0966982045076359e+00   1.0045472095514445e+00   1.0356851957260886e+00   1.0000000000000000e+00   1.0000000000000000e+00   1.0000000000000000e+00   1.0492464557976380e+00   1.0277843265932585e+00   1.0027402910402765e+00   1.0640962740801614e+00   1.0501244989063212e+00   1.0651464514145672e+00   1.0524477654008275e+00   1.0461813312401893e+00   1.0384891853908953e+00   1.0236113450199031e+00   1.0211145032101265e+00   1.0072442661326617e+00   1.0078297871716018e+00   1.0020086390930762e+00   1.0014441194269432e+00   1.0103712552780111e+00