<?xml version="1.0"?>
<VTKFile type="UnstructuredGrid"  version="0.1"  >
<UnstructuredGrid>
<Piece  NumberOfPoints="961" NumberOfCells="1800">
<Points>
<DataArray  type="Float64"  NumberOfComponents="3"  format="ascii">0 0 0  0.03333333333333333 0 0  0.06666666666666667 0 0  0.1 0 0  0.1333333333333333 0 0  0.1666666666666667 0 0  0.2 0 0  0.2333333333333333 0 0  0.2666666666666667 0 0  0.3 0 0  0.3333333333333333 0 0  0.3666666666666666 0 0  0.4000000000000001 0 0  0.4333333333333333 0 0  0.4666666666666667 0 0  0.5 0 0  0.5333333333333333 0 0  0.5666666666666667 0 0  0.6 0 0  0.6333333333333333 0 0  0.6666666666666666 0 0  0.7 0 0  0.7333333333333333 0 0  0.7666666666666667 0 0  0.8 0 0  0.8333333333333334 0 0  0.8666666666666667 0 0  0.9 0 0  0.9333333333333332 0 0  0.9666666666666667 0 0  1 0 0  0 0.03333333333333333 0  0.04064099830997541 0.04064099830997542 0  0.07472695438039155 0.03791533412643859 0  0.106680096420949 0.03425575861991389 0  0.1382784715048485 0.03107929735098456 0  0.1699976025424193 0.02861872302650892 0  0.2019336535950705 0.02696491496807792 0  0.2340431848425039 0.02620303229380101 0  0.2662137076289314 0.02640471971595156 0  0.2983100050195794 0.0276071876042405 0  0.3302248638962925 0.02983143676888225 0  0.3619223433327468 0.03314726617920381 0  0.3935059806896973 0.03776673243616015 0  0.4254452521879977 0.0441299108000743 0  0.4593673610673845 0.05255564289756895 0  0.4992290354060616 0.05922278239368176 0  0.5403602606263266 0.05283921651379294 0  0.5746064822669102 0.0440844266401759 0  0.6066210197555851 0.03764566641666556 0  0.6382471919376513 0.0330261902856232 0  0.6699807446931043 0.0297318214776388 0  0.7019253151375059 0.02753923585316462 0  0.7340407809774273 0.02637541039893281 0  0.7662165136741317 0.02621493868126629 0  0.7983187926370792 0.02701437606306632 0  0.8302422933017602 0.0286972526406834 0  0.8619544785911321 0.03117424108843602 0  0.893566603584307 0.03434177669103255 0  0.9255691211189407 0.03791518025100715 0  0.9596562978413856 0.0403437018605501 0  1 0.03333333333333333 0  0 0.06666666666666667 0  0.03791533412643856 0.07472695438039155 0  0.07292614384339041 0.07292614384339043 0  0.1057410679397408 0.06774408440244623 0  0.1376920929482256 0.06222363332645228 0  0.169557512144807 0.05752624351181271 0  0.2016579577917721 0.05419916687575628 0  0.2340213561545867 0.05260358983791859 0  0.2664836435178283 0.05297218769770613 0  0.2988078378310101 0.05536212023406278 0  0.330841713368842 0.05968596433013926 0  0.3626216474857896 0.06581793391342909 0  0.3944593299606081 0.07362682722672324 0  0.4270883164983784 0.08274037778782753 0  0.4617725275383268 0.09165471231237818 0  0.499455456562192 0.09620428285628718 0  0.5376052358976547 0.09198032485835457 0  0.5727565833808428 0.08290851103526045 0  0.6056469669160237 0.07361964025343272 0  0.6376390065090498 0.06572166315607331 0  0.6695279533153587 0.05956586424645166 0  0.7016431013510958 0.05526264388595358 0  0.7340170599528106 0.0529237401277529 0  0.766488707329249 0.05261804745674624 0  0.7988235171077698 0.05426382754450745 0  0.8308722233915258 0.0576099176951203 0  0.8626759253927009 0.06228192260558396 0  0.8945550304264848 0.06771552429300438 0  0.9272599945707776 0.0727400050910271 0  0.9620848194959596 0.07443087869839071 0  1 0.06666666666666667 0  0 0.1 0  0.0342557586199139 0.106680096420949 0  0.06774408440244621 0.1057410679397408 0  0.1005000024453843 0.1005000024453843 0  0.1330378490821934 0.0936929386816506 0  0.1658651183364832 0.08713574462097018 0  0.1992786138389624 0.08208164228534871 0  0.2332672175248284 0.07948764620104501 0  0.2674741496352081 0.07997128164509841 0  0.3013672165258944 0.08357979374862573 0  0.3346265387762058 0.08984403541874725 0  0.3672674550777331 0.09806295697084065 0  0.3995933461207865 0.1073935659518554 0  0.4321148998349399 0.1166624567449367 0  0.4653897732513599 0.1240439093852863 0  0.4996015203101487 0.1271173054635453 0  0.5339878849050244 0.1243103968452965 0  0.5675755136514061 0.1169530443702526 0  0.6003969364175789 0.1075625452400378 0  0.6329760315086297 0.09809061388166304 0  0.6658294003395705 0.08977461373922799 0  0.6992602972353708 0.08348124947915296 0  0.7332619136559464 0.07991104274549157 0  0.767480539514421 0.07949833770629575 0  0.8013866459708331 0.08213155135442371 0  0.8346634195870666 0.08715872818259419 0  0.8673304854145968 0.09362422823779362 0  0.8996976082156597 0.1003023911279779 0  0.9322844752427542 0.1054449691599235 0  0.9656582230548014 0.1064333962181929 0  1 0.1 0  0 0.1333333333333333 0  0.03107929735098457 0.1382784715048486 0  0.06222363332645229 0.1376920929482256 0  0.0936929386816506 0.1330378490821935 0  0.1259623569662037 0.1259623569662037 0  0.1595547243839193 0.1181169368720923 0  0.1948395850312905 0.1112746965532489 0  0.2317196756865545 0.107358886545516 0  0.2692525113253236 0.1078960701829634 0  0.3059199817883393 0.1128710842455495 0  0.3409204441606106 0.1208811819415709 0  0.3742420542770069 0.1302807174495438 0  0.4062834435256398 0.1396551551964242 0  0.4375770372342746 0.1477764092657327 0  0.4686175404582131 0.1534596513390968 0  0.4997082088953608 0.1556187305581842 0  0.5308713044678847 0.1536975810074328 0  0.5620832499116768 0.1481341542316086 0  0.5936016110749648 0.1399948736576545 0  0.6259048415930917 0.1305006306945309 0  0.659520288414321 0.1209414517541361 0  0.6948215254858784 0.1128117797344519 0  0.7317144720129026 0.1078276171500544 0  0.7692590882666936 0.1073628370322584 0  0.8059393924170354 0.1112736445550798 0  0.840956185137446 0.1180032537555816 0  0.8743007738853782 0.1256992248035052 0  0.9063757708323733 0.1326695137955826 0  0.9377180768190323 0.1373240741655451 0  0.9688257586357868 0.1380455212114453 0  1 0.1333333333333333 0  0 0.1666666666666667 0  0.02861872302650894 0.1699976025424194 0  0.05752624351181274 0.1695575121448071 0  0.08713574462097022 0.1658651183364833 0  0.1181169368720924 0.1595547243839195 0  0.1514392842684492 0.1514392842684492 0  0.1882575905815301 0.1430050392280493 0  0.2291385780996871 0.1372010372205011 0  0.272071369411749 0.1377257218481185 0  0.3124935767513008 0.144389064482826 0  0.3488971810077517 0.1536864300371788 0  0.3819537897777894 0.1630184918624852 0  0.4127756026929771 0.1711400487925412 0  0.4422924286095927 0.1774498137864078 0  0.4711619716123636 0.1815275485420175 0  0.4998048333176195 0.1830224538707718 0  0.5284781688533157 0.1817599729175082 0  0.5574292445489301 0.177857337995101 0  0.5870711270555192 0.1716308587057922 0  0.6180753120968572 0.1634785925302829 0  0.6514137825333586 0.1539885534656198 0  0.6882439284816275 0.1444489234918074 0  0.7291347465373652 0.1376488408177666 0  0.7720768655368987 0.1371980176656209 0  0.8125088349450814 0.1428741507628365 0  0.8489241801738547 0.1510758167174464 0  0.8819967442172155 0.1590438133456748 0  0.9128412706497451 0.1653365796577584 0  0.9423900816796879 0.1691277762360233 0  0.9713027470864801 0.1697577065431891 0  1 0.1666666666666667 0  0 0.2 0  0.02696491496807795 0.2019336535950706 0  0.05419916687575635 0.2016579577917721 0  0.08208164228534885 0.1992786138389626 0  0.1112746965532491 0.1948395850312907 0  0.1430050392280494 0.1882575905815303 0  0.1796289467646515 0.1796289467646516 0  0.2248234474842196 0.1713332148352747 0  0.2765976207920056 0.1717346585328852 0  0.320867839707156 0.1802911397461877 0  0.3571148586986342 0.1893640540293576 0  0.3887083886278591 0.1967764487674799 0  0.4178395405509345 0.2024377311958102 0  0.4456910090850317 0.2064987960073929 0  0.4729177034028601 0.2090096231814834 0  0.4999018833346555 0.2099368535205261 0  0.5268973017031899 0.2092451584540735 0  0.5541547961071174 0.2069451130826195 0  0.5820539958195096 0.2030509089178371 0  0.6112583585457643 0.1974895191113562 0  0.6429959168109141 0.1900544476024544 0  0.6796244107084788 0.1807102609091859 0  0.7248225667457403 0.1716842230079656 0  0.7766005240648749 0.1712863204191202 0  0.8208743445523088 0.1791256439930385 0  0.8571258430713857 0.1874911620017088 0  0.8887263528200106 0.1940606065570294 0  0.9178684475053133 0.1986133536304197 0  0.9457361719433753 0.2011764827259551 0  0.972985623734109 0.2016812073001613 0  1 0.2 0  0 0.2333333333333333 0  0.02620303229380102 0.2340431848425039 0  0.05260358983791863 0.2340213561545867 0  0.07948764620104511 0.2332672175248284 0  0.107358886545516 0.2317196756865545 0  0.1372010372205012 0.2291385780996873 0  0.1713332148352747 0.2248234474842197 0  0.2173632607049328 0.2173632607049328 0  0.2836247760735193 0.2166341315319816 0  0.3287208185860876 0.2239013479734524 0  0.3628127740312173 0.2286459886657971 0  0.3926502179701292 0.2317342634773619 0  0.4205154430912889 0.2338734210142749 0  0.447394533817513 0.2353526655553795 0  0.4737939839491641 0.2362737939667571 0  0.5000021373473176 0.2366602433504725 0  0.526212361013141 0.2365101635742944 0  0.5526171431732934 0.2358169498558063 0  0.5795029617334809 0.2345549066073641 0  0.6073739638983129 0.232628903416706 0  0.637214250586327 0.2297622661103413 0  0.6713430977615339 0.2252140754616009 0  0.7173679986860328 0.2174988159006175 0  0.7836227523975425 0.2163771260032729 0  0.8287136357870606 0.2233994787697681 0  0.8628019744461306 0.2279231360195083 0  0.8926371614046548 0.2307409123258052 0  0.9205016618928306 0.232519460769905 0  0.9473819524129222 0.2335112928131584 0  0.9737850612753073 0.2337834863860903 0  1 0.2333333333333333 0  0 0.2666666666666667 0  0.02640471971595158 0.2662137076289314 0  0.05297218769770617 0.2664836435178282 0  0.07997128164509847 0.267474149635208 0  0.1078960701829634 0.2692525113253236 0  0.1377257218481186 0.2720713694117491 0  0.1717346585328852 0.2765976207920056 0  0.2166341315319815 0.2836247760735193 0  0.2825096620871526 0.2825096620871527 0  0.3283384466863219 0.2747959921545711 0  0.3623852354038442 0.2702481134927248 0  0.392217945757411 0.267380785132635 0  0.4201470309637038 0.2654529918443683 0  0.44714829496
[...]
<CellData  Scalars="q"> 
<DataArray  type="Float64"  Name="q"  format="ascii">1.0142571598653582e+00   1.0142571598653580e+00   1.0000000000000000e+00   1.0000000000000000e+00   1.0000000000000000e+00   1.0000000000000000e+00   1.0000000000000000e+00   1.0000000000000000e+00   1.0023091300373048e+00   1.0000000000000000e+00   1.0158813876941826e+00   1.0051624328642896e+00   1.0250166562547016e+00   1.0180889698322706e+00   1.0247194486149382e+00   1.0230616057907740e+00   1.0148144086685877e+00   1.0172377915111370e+00   1.0003849938342628e+00   1.0036058178316749e+00   1.0000000000000000e+00   1.0000000000000000e+00   1.0000000000000000e+00   1.0000000000000000e+00   1.0111836770218310e+00   1.0000000000000000e+00   1.0498249008228335e+00   1.0000000000000000e+00   1.1024320050504532e+00   1.0310600961035361e+00   1.0814619660940770e+00   1.0558441870228954e+00   1.0270557924514083e+00   1.0201872931390770e+00   1.0000000000000000e+00   1.0000000000000000e+00   1.0000000000000000e+00   1.0000000000000000e+00   1.0000000000000000e+00   1.0000000000000000e+00   1.0109950127663583e+00   1.0000000000000000e+00   1.0227921322172628e+00   1.0144648353792771e+00   1.0259394041913172e+00   1.0225970411121499e+00   1.0190649740107713e+00   1.0200507658050042e+00   1.0061097477311873e+00   1.0087064836667059e+00   1.0000000000000000e+00   1.0000000000000000e+00   1.0000000000000000e+00   1.0000000000000000e+00   1.0000000000000000e+00   1.0000000000000000e+00   1.0190549220746901e+00   1.0000000000000000e+00   1.0038020080170802e+00   1.0228702894123538e+00   1.0000000000000000e+00   1.0000000000000000e+00   1.0013416453234973e+00   1.0013416453234973e+00   1.0000000000000000e+00   1.0160513950558894e+00   1.0000000000000000e+00   1.0116693774216019e+00   1.0000000000000000e+00   1.0084190914164122e+00   1.0073662252908973e+00   1.0107810101037358e+00   1.0170403865505151e+00   1.0162580279798417e+00   1.0199858279103833e+00   1.0198029202673975e+00   1.0147719325772857e+00   1.0187363581693205e+00   1.0056722158241000e+00   1.0153077053408677e+00   1.0000000000000000e+00   1.0146794303103215e+00   1.0004539622854423e+00   1.0201253697675299e+00   1.0063255775366036e+00   1.0281706758182358e+00   1.0028174671074266e+00   1.0282640676873867e+00   1.0000000000000000e+00   1.0067781617073268e+00   1.0170169665406212e+00   1.0055193299691740e+00   1.0224701087036081e+00   1.0348432528926452e+00   1.0046544693056378e+00   1.0361851563575002e+00   1.0000000000000000e+00   1.0198900587068791e+00   1.0000000000000000e+00   1.0099211574207800e+00   1.0035051028299005e+00   1.0092373755070738e+00   1.0145088055022555e+00   1.0143661796842844e+00   1.0198307677793859e+00   1.0191272011517825e+00   1.0167603122078073e+00   1.0194645848590318e+00   1.0084308312718355e+00   1.0162440556488248e+00   1.0007944390730992e+00   1.0135860295676022e+00   1.0000000000000000e+00   1.0140446964242680e+00   1.0000000000000000e+00   1.0143510653974996e+00   1.0003705148342836e+00   1.0058713343768364e+00   1.0190549229112813e+00   1.0000000000000000e+00   1.0000000000000000e+00   1.0000000000000000e+00   1.0160513950558892e+00   1.0000000000000000e+00   1.0531786435696069e+00   1.0531786435696067e+00   1.0523287238112546e+00   1.0669511655478083e+00   1.0401121356975873e+00   1.0598462949691669e+00   1.0287441820142009e+00   1.0428062523338375e+00   1.0226619054080521e+00   1.0285527192416488e+00   1.0222663021907372e+00   1.0234909570835078e+00   1.0275213260034377e+00   1.0300477065235871e+00   1.0386679457718304e+00   1.0466688722456388e+00   1.0545792238938434e+00   1.0682916894094827e+00   1.0698876118395764e+00   1.0861899905623214e+00   1.0726625776064977e+00   1.0885755942309476e+00   1.0508697355284353e+00   1.0648276839291817e+00   1.0155758469385761e+00   1.0244918949283988e+00   1.0228514348225612e+00   1.0132543942091976e+00   1.0726842362502711e+00   1.0610041821344804e+00   1.0885422673683567e+00   1.0977118903995129e+00   1.0714306754415970e+00   1.0965510863113055e+00   1.0486835223738800e+00   1.0753902147106582e+00   1.0316579175447491e+00   1.0499237749220911e+00   1.0231319181023841e+00   1.0309945960137754e+00   1.0217933936889427e+00   1.0234017289634323e+00   1.0258124373367234e+00   1.0277171832863194e+00   1.0337756654723083e+00   1.0405561511136678e+00   1.0432955437174125e+00   1.0553752259072542e+00   1.0478326492474079e+00   1.0625136541809932e+00   1.0363299737047511e+00   1.0507946163353623e+00   1.0000000000000000e+00   1.0143510668307232e+00   1.0000000000000000e+00   1.0000000000000000e+00   1.0000000000000000e+00   1.0000000000000000e+00   1.0116693774216019e+00   1.0000000000000000e+00   1.0669511655478079e+00   1.0523287238112544e+00   1.0925675953272200e+00   1.0925675953272196e+00   1.0867628916715724e+00   1.1046364540627631e+00   1.0602384401998819e+00   1.0826304475479887e+00   1.0353331157292369e+00   1.0491170153978662e+00   1.0307701294723763e+00   1.0324587400606158e+00   1.0508903883931051e+00   1.0483511202603724e+00   1.0833776707657385e+00   1.0850800251375283e+00   1.1109121751858388e+00   1.1179988957419349e+00   1.1188115600486404e+00   1.1284877984841539e+00   1.0980832499299171e+00   1.1092162059831372e+00   1.0530260431242300e+00   1.0657351669582933e+00   1.0130730142569240e+00   1.0207867752289512e+00   1.0207598096434960e+00   1.0098346448076203e+00   1.0702436080601319e+00   1.0482161396494680e+00   1.1138928569491671e+00   1.1010351696555556e+00   1.1264349577697814e+00   1.1341870179879707e+00   1.1068314984822696e+00   1.1314986407561143e+00   1.0705115070406830e+00   1.0983501620373257e+00   1.0389270544149334e+00   1.0561775236513362e+00   1.0293301040195333e+00   1.0329155946336779e+00   1.0442529848506914e+00   1.0425696331320036e+00   1.0696261139539336e+00   1.0718438738233749e+00   1.0869441930871253e+00   1.0950039272695080e+00   1.0814583559826996e+00   1.0935112672685521e+00   1.0478326505831921e+00   1.0625136554769596e+00   1.0000000000000000e+00   1.0140446981985756e+00   1.0000000000000000e+00   1.0000000000000000e+00   1.0000000000000000e+00   1.0023091300373048e+00   1.0084190914164122e+00   1.0000000000000000e+00   1.0598462949691660e+00   1.0401121356975866e+00   1.1046364540627625e+00   1.0867628916715713e+00   1.1179311736306321e+00   1.1179311736306319e+00   1.0955282484658069e+00   1.1116239857590022e+00   1.0561585072871018e+00   1.0732005500219328e+00   1.0430971124363795e+00   1.0442523083599049e+00   1.0752993944603770e+00   1.0671294515739604e+00   1.1169572481028363e+00   1.1128533921832164e+00   1.1368032092736371e+00   1.1363900624687358e+00   1.1242196772540589e+00   1.1263179535040067e+00   1.0858998484893865e+00   1.0909425494558269e+00   1.0388184316718658e+00   1.0465420900846603e+00   1.0071900249015802e+00   1.0117252862603463e+00   1.0109420071959823e+00   1.0035657586013720e+00   1.0495570064904673e+00   1.0280514400618539e+00   1.1015661296052808e+00   1.0741886429185394e+00   1.1406767733094105e+00   1.1214735410375267e+00   1.1437322298633839e+00   1.1450486137622762e+00   1.1117029337673106e+00   1.1310127280042437e+00   1.0631848973543785e+00   1.0838859560601559e+00   1.0408942210235699e+00   1.0454741224112429e+00   1.0647758429484879e+00   1.0588301813877705e+00   1.0980591866040685e+00   1.0961834377592719e+00   1.1085697894487403e+00   1.1120279391343086e+00   1.0869441939005382e+00   1.0950039284802717e+00   1.0432955455053889e+00   1.0553752273229073e+00   1.0007944402107465e+00   1.0135860306959308e+00   1.0000000000000000e+00   1.0000000000000000e+00   1.0051624328642894e+00   1.0158813876941821e+00   1.0107810101037353e+00   1.0073662252908966e+00   1.0428062523338366e+00   1.0287441820142003e+00   1.0826304475479875e+00   1.0602384401998806e+00   1.1116239857590029e+00   1.0955282484658069e+00   1.1204266433087640e+00   1.1204266433087648e+00   1.0756567892365925e+00   1.0899559017353424e+00   1.0467746687649719e+00   1.0448444890716946e+00   1.0826988285325696e+00   1.0700936978240134e+00   1.1185793203080840e+00   1.1061173731525564e+00   1.1175152155264161e+00   1.1099367505198843e+00   1.0907990120706850e+00   1.0855572665949635e+00   1.0539582228645699e+00   1.0528730076820783e+00   1.0212727528860599e+00   1.0237871355432264e+00   1.0026694896024033e+00   1.0050716203945402e+00   1.0039551650788787e+00   1.0005134221824132e+00   1.0255161499106609e+00   1.0116973025275873e+00   1.0618782311798622e+00   1.0374139671557256e+00   1.1029812318293939e+00   1.0730896886668830e+00   1.1304911418870880e+00   1.1093998016860531e+00   1.1366472167153134e+00   1.1352126086287846e+00   1.0843102180705888e+00   1.1008913448682534e+00   1.0436261949276118e+00   1.0458753186945180e+00   1.0720210370197567e+00   1.0617370024515131e+00   1.1025223068090066e+00   1.0938364966714924e+00   1.0980591819397465e+00   1.0961834412552629e+00   1.0696261158514397e+00   1.0718438700343751e+00   1.0337756664422122e+00   1.0405561524959077e+00   1.0084308312813015e+00   1.0162440557425565e+00   1.0061097466934992e+00   1.0087064827096257e+00   1.0180889698322702e+00   1.0250166562547012e+00   1.0162580279798410e+00   1.0170403865505149e+00   1.0285527192416479e+00   1.0226619054080515e+00   1.0491170153978646e+00   1.0353331157292360e+00   1.0732005500219333e+00   1.0561585072871005e+00   1.0899559017353437e+00   1.0756567892365934e+00   1.0462295029781346e+00   1.0462295029781348e+00   1.0176581820796353e+00   1.0086343434184024e+00   1.0608419006001433e+00   1.0248169711121369e+00   1.0762820277343550e+00   1.0623884637656644e+00   1.0666006177044240e+00   1.0556307751608076e+00   1.0432414097605462e+00   1.0361025875368310e+00   1.0220784281684487e+00   1.0186537102925277e+00   1.0078907264331394e+00   1.0073087955722562e+00   1.0009628625361460e+00   1.0016639600730817e+00   1.0007767273926524e+00   1.0001294112133727e+00   1.0078919375639972e+00   1.0025814669512232e+00   1.0235675208297588e+00   1.0108196233206896e+00   1.0472506876765335e+00   1.0265744538472017e+00   1.0744823577777707e+00   1.0501266007852248e+00   1.0941135788153344e+00   1.0731986578802020e+00   1.0510562293576085e+00   1.0479656884055324e+00   1.0164445388881704e+00   1.0095952567800899e+00   1.0553860148267704e+00   1.0225266960178063e+00   1.0720209944291013e+00   1.0617370599523559e+00   1.0647758448446325e+00   1.0588300990027502e+00   1.0442529832053387e+00   1.0425696380000675e+00   1.0258124382824585e+00   1.0277171847682440e+00   1.0167603118783628e+00   1.0194645852726558e+00   1.0190649728415369e+00   1.0200507652658244e+00   1.0230616057907738e+00   1.0247194486149385e+00   1.0198029202673973e+00   1.0199858279103833e+00   1.0234909570835073e+00   1.0222663021907372e+00   1.0324587400606151e+00   1.0307701294723761e+00   1.0442523083599038e+00   1.0430971124363793e+00   1.0448444890716950e+00   1.0467746687649719e+00   1.0086343434184024e+00   1.0176581820796355e+00   1.0038271404087820e+00   1.0038271404087820e+00   1.0143787151896184e+00   1.0089253060524550e+00   1.0369109218684527e+00   1.0398857678095492e+00   1.0296739891919191e+00   1.0351863525365586e+00   1.0152473740591106e+00   1.0196559515491672e+00   1.0056349860831617e+00   1.0080148020127098e+00   1.0014635825958127e+00   1.0020383632598897e+00   1.0004201199544089e+00   1.0003223918222637e+00   1.0004608511402702e+00   1.0004736236230274e+00   1.0020456290280995e+00   1.0019760950249867e+00   1.0076399302663068e+00   1.0067547107436434e+00   1.0188351776183264e+00   1.0170281886187484e+00   1.0337627576792909e+00   1.0321289318206150e+00   1.0387695203636487e+00   1.0401940443889492e+00   1.0079387276133649e+00   1.0156357931035216e+00   1.0039956866640170e+00   1.0036597045317643e+00   1.0164448831045143e+00   1.0095953973432472e+00   1.0436260666985548e+00   1.0458752516870291e+00   1.0408941955671853e+00   1.0454742452061014e+00   1.0293301114277309e+00   1.0329156085624542e+00   1.0217933958630860e+00   1.0234017352640148e+00   1.0198307691566322e+00   1.0191272040472290e+00   1.0259394043596106e+00   1.0225970423273467e+00   1.0172377915111370e+00   1.0148144086685877e+00   1.0187363581693207e+00   1.0147719325772855e+00   1.0300477065235873e+00   1.0275213260034379e+00   1.0483511202603730e+00   1.0508903883931058e+00   1.0671294515739607e+00   1.0752993944603775e+00   1.0700936978240139e+00   1.0826988285325703e+00   1.0248169711121369e+00   1.0608419006001433e+00   1.0089253060524550e+00   1.0143787151896182e+00   1.0530219934315617e+00   1.0530219934315614e+00   1.0825163982537158e+00   1.1058612210540917e+00   1.0584111171297135e+00   1.0867250998832401e+00   1.0322773788566997e+00   1.0569260317601756e+00   1.0138938878005543e+00   1.0296228444582369e+00   1.0034925145339657e+00   1.0104551101515287e+00   1.0000320567828407e+00   1.0011522136985609e+00   1.0020803470668602e+00   1.0012143177482811e+00   1.0095727503411234e+00   1.0101406857039033e+00   1.0235136459657601e+00   1.0277654743626696e+00   1.0435992415110942e+00   1.0527479080880888e+00   1.0649389094421957e+00   1.0789674476588766e+00   1.0712357467346203e+00   1.0879200242695901e+00   1.0272518702625022e+00   1.0666927559102080e+00   1.0079388281908299e+00   1.0156361257626454e+00   1.0510564635044672e+00   1.0479658965049115e+00   1.0843103432469352e+00   1.1008918885395964e+00   1.0631850336332085e+00   1.0838861658448127e+00   1.0389270625376632e+00   1.0561775215235041e+00   1.0231319258106617e+00   1.0309946118629867e+00   1.0145088088814704e+00   1.0143661824606367e+00   1.0227921339741535e+00   1.0144648376358589e+00   1.0036058178316747e+00   1.0003849938342628e+00   1.0153077053408679e+00   1.0056722158241000e+00   1.0466688722456392e+00   1.0386679457718309e+00   1.0850800251375285e+00   1.0833776707657385e+00   1.1128533921832162e+00   1.1169572481028358e+00   1.1061173731525571e+00   1.1185793203080845e+00   1.0623884637656653e+00   1.0762820277343559e+00   1.0398857678095483e+00   1.0369109218684529e+00   1.1058612210540915e+00   1.0825163982537149e+00   1.1534482149967147e+00   1.1534482149967151e+00   1.1289709165123092e+00   1.1535384482895532e+00   1.0886312091573271e+00   1.1245348201883585e+00   1.0467586856944404e+00   1.0766264798102516e+00   1.0155448354514371e+00   1.0329331152147958e+00   1.0015517810088386e+00   1.0065519714943971e+00   1.0070376150812792e+00   1.0047593916622835e+00   1.0300426498971600e+00   1.0274046022923882e+00   1.0651418254401441e+00   1.0670760016032548e+00   1.1032189903105039e+00   1.1108769872912279e+00   1.1293471153698009e+00   1.1405994676368072e+00   1.1197824782385970e+00   1.1369424052796191e+00   1.0712358540664200e+00   1.0879199720455173e+00   1.0387694808848953e+00   1.0401939684736805e+00   1.0941140897124386e+00   1.0731987302108486e+00   1.1366480836514257e+00   1.1352135118559830e+00   1.1117030722696319e+00   1.1310126328035564e+00   1.0705115305388930e+00   1.0983501929524917e+00   1.0316579284852536e+00   1.0499237876179845e+00   1.0035051048977097e+00   1.0092373770866190e+00   1.0109950146139386e+00   1.0000000000000000e+00   1.0000000000000000e+00   1.0000000000000000e+00   1.0146794303103226e+00   1.0000000000000000e+00   1.0682916894094836e+00   1.0545792238938450e+00   1.1179988957419329e+00   1.1109121751858371e+00   1.1363900624687346e+00   1.1368032092736344e+00   1.1099367505198858e+00   1.1175152155264165e+00   1.0556307751608096e+00   1.0666006177044267e+00   1.0351863525365577e+00   1.0296739891919193e+00   1.0867250998832398e+00   1.0584111171297128e+00   1.1535384482895528e+00   1.1289709165123092e+00   1.1772970549012416e+00   1.1772970549012403e+00   1.1515174351825672e+00   1.1779519247823138e+00   1.0947514290055274e+00   1.1309552838916490e+00   1.0385026483468565e+00   1.0670391306333105e+00   1.0083534487566954e+00   1.0192487992844148e+00   1.0180286719291247e+00   1.0141008163722458e+00   1.0606528840309646e+00   1.0528838479737848e+00   1.1153274667035538e+00   1.1117761716779062e+00   1.1578073796877371e+00   1.1596922276165942e+00   1.1660582703985656e+00   1.1726267296132000e+00   1.1293471249616687e+00   1.1405994630777578e+00   1.0649388280641436e+00   1.0789674607804238e+00   1.0337628441807538e+00   1.0321289068987012e+00   1.0744825561892457e+00   1.0501266918448946e+00   1.1304910846609932e+00   1.1093999901998843e+00   1.1437320243045668e+00   1.1450483918991297e+00   1.1068315096618089e+00   1.1314986989057587e+00   1.0486835249002227e+00   1.0753902102207680e+00   1.0000000000000000e+00   1.0099211602948854e+00   1.0000000000000000e+00   1.0000000000000000e+00   1.0000000000000000e+00   1.0000000000000000e+00   1.0201253697675319e+00   1.0004539622854431e+00   1.0861899905623229e+00   1.0698876118395799e+00   1.1284877984841513e+00   1.1188115600486404e+00   1.1263179535040040e+00   1.1242196772540565e+00   1.0855572665949631e+00   1.0907990120706832e+00   1.0361025875368333e+00   1.0432414097605467e+00   1.0196559515491670e+00   1.0152473740591110e+00   1.0569260317601759e+00   1.0322773788566999e+00   1.1245348201883583e+00   1.0886312091573280e+00   1.1779519247823127e+00   1.1515174351825666e+00   1.1851367901859458e+00   1.1851367901859458e+00   1.1401168000302373e+00   1.1662995373627072e+00   1.0704535114969973e+00   1.1031644444568234e+00   1.0223777108602858e+00   1.0382479115915180e+00   1.0358201610912912e+00   1.0293096277696567e+00   1.0938272268673135e+00   1.0814340796209014e+00   1.1522906851291752e+00   1.1441570123914921e+00   1.1774014377971767e+00   1.1744390271717269e+00   1.1578073825999344e+00   1.1596922296001608e+00   1.1032189889593174e+00   1.1108769927303612e+00   1.0435992509270711e+00   1.0527479098561914e+00   1.0188351899122756e+00   1.0170281954307012e+00   1.0472506908924362e+00   1.0265744550641798e+00   1.1029812625778637e+00   1.0730897240989452e+00   1.1406768186382141e+00   1.1214735378966059e+00   1.1264349911685614e+00   1.1341870558031413e+00   1.0714306767816224e+00   1.0965510806160259e+00   1.0000000000000000e+00   1.0198900642987496e+00   1.0000000000000000e+00   1.0000000000000000e+00   1.0000000000000000e+00   1.0111836770218314e+00   1.0281706758182385e+00   1.0063255775366042e+00   1.0885755942309527e+00   1.0726625776065033e+00   1.1092162059831370e+00   1.0980832499299196e+00   1.0909425494558267e+00   1.0858998484893858e+00   1.0528730076820767e+00   1.0539582228645692e+00   1.0186537102925270e+00   1.0220784281684476e+00   1.0080148020127089e+00   1.0056349860831613e+00   1.0296228444582369e+00   1.0138938878005537e+00   1.0766264798102501e+00   1.0467586856944384e+00   1.1309552838916470e+00   1.0947514290055236e+00   1.1662995373627068e+00   1.1401168000302344e+00   1.1615193964490227e+00   1.1615193964490222e+00   1.1078355243767921e+00   1.1343365461864003e+00   1.0405481941711026e+00   1.0627134259224496e+00   1.0524997303826988e+00   1.0443389031597119e+00   1.1142934446476671e+00   1.0977143241260974e+00   1.1549385296880961e+00   1.1434332707719286e+00   1.1522906878706807e+00   1.1441570153240765e+00   1.1153274703988778e+00   1.1117761759140472e+00   1.0651418303843343e+00   1.0670760055378323e+00   1.0235136504533831e+00   1.0277654782866565e+00   1.0076399330552590e+00   1.0067547128208667e+00   1.0235675316622812e+00   1.0108196260169360e+00   1.0618782440096826e+00   1.0374139777359996e+00   1.1015661269398120e+00   1.0741886453854981e+00   1.1138928539040611e+00   1.1010351729628609e+00   1.0885422690776827e+00   1.0977118904710548e+00   1.0046544722981050e+00   1.0361851596670202e+00   1.0000000000000000e+00   1.0000000000000000e+00   1.0000000000000000e+00   1.0498249008228324e+00   1.0282640676873873e+00   1.0028174671074255e+00   1.0648276839291870e+00   1.0508697355284387e+00   1.0657351669582948e+00   1.0530260431242340e+00   1.0465420900846607e+00   1.0388184316718663e+00   1.0237871355432258e+00   1.0212727528860603e+00   1.0073087955722557e+00   1.0078907264331389e+00   1.0020383632598890e+00   1.0014635825958125e+00   1.0104551101515278e+00