<?xml version="1.0"?>
<VTKFile type="UnstructuredGrid"  version="0.1"  >
<UnstructuredGrid>
<Piece  NumberOfPoints="961" NumberOfCells="1800">
<Points>
<DataArray  type="Float64"  NumberOfComponents="3"  format="ascii">0 0 0  0.03333333333333333 0 0  0.06666666666666667 0 0  0.1 0 0  0.1333333333333333 0 0  0.1666666666666667 0 0  0.2 0 0  0.2333333333333334 0 0  0.2666666666666667 0 0  0.3 0 0  0.3333333333333333 0 0  0.3666666666666667 0 0  0.4 0 0  0.4333333333333334 0 0  0.4666666666666667 0 0  0.5 0 0  0.5333333333333333 0 0  0.5666666666666667 0 0  0.6 0 0  0.6333333333333333 0 0  0.6666666666666666 0 0  0.7 0 0  0.7333333333333333 0 0  0.7666666666666667 0 0  0.8 0 0  0.8333333333333334 0 0  0.8666666666666667 0 0  0.9 0 0  0.9333333333333333 0 0  0.9666666666666668 0 0  1 0 0  0 0.03333333333333333 0  0.04044029118181441 0.04044029118181441 0  0.07461063696461975 0.03783850064472604 0  0.1066237371426876 0.03424086997214929 0  0.1382533669837845 0.03109589992301128 0  0.1699878813013262 0.02865384385604811 0  0.2019303695704327 0.02701120716947423 0  0.2340413516267336 0.02625412073888548 0  0.2662116676924177 0.0264536977550901 0  0.2983094711994541 0.02764662060526347 0  0.3302306157401341 0.02985299185120353 0  0.3619425661750534 0.03313889328191134 0  0.3935544307324198 0.03770433460871185 0  0.4255448452512128 0.04395403871466415 0  0.4595347552619187 0.05211328348764128 0  0.4992862238602657 0.05835132600078285 0  0.5401734791667798 0.05235133263120322 0  0.5744944947532445 0.04389738171852169 0  0.6065662942118855 0.0375797587368707 0  0.6382227741306049 0.0330163982549399 0  0.6699713240751306 0.02975276986223966 0  0.7019221524869351 0.02757850847861408 0  0.7340389686640358 0.02642453251883705 0  0.7662144130988174 0.02626643580637078 0  0.79831809042833 0.02706142752226432 0  0.8302476782065933 0.02873369918641263 0  0.8619739016365568 0.0311932575244766 0  0.8936131832128199 0.03433204134675866 0  0.9256637733162237 0.03785262407275529 0  0.9598081238873136 0.04019187576074754 0  1 0.03333333333333333 0  0 0.06666666666666667 0  0.03783850064472605 0.07461063696461975 0  0.07285636352453712 0.07285636352453712 0  0.1057017457953287 0.06773544139042838 0  0.137678103930529 0.06226229907453183 0  0.1695578228582519 0.05759959291023051 0  0.2016619674018479 0.05429627111207248 0  0.2340210627968722 0.05271199778615812 0  0.2664759982918994 0.05307668712254323 0  0.2987963326396579 0.05544675006642938 0  0.3308342800536648 0.05973538340139099 0  0.3626282817989219 0.06581459720377478 0  0.3944901553280305 0.07354434909393966 0  0.4271484989627261 0.08253583563076963 0  0.4618446631803774 0.0912777738962387 0  0.4994717916466341 0.09568916201529448 0  0.5375374698464194 0.09158222809259889 0  0.5726911045807362 0.08269151534731414 0  0.6056096564996768 0.0735313241379016 0  0.6376259670344123 0.0657155898521303 0  0.6695287029943094 0.05961410020840469 0  0.7016472896925091 0.05534701508500682 0  0.7340167925250476 0.05302856396097554 0  0.7664809623783588 0.05272720938388346 0  0.7988117490467828 0.05436232181380132 0  0.8308642421003145 0.05768570606836122 0  0.862681450768801 0.06232480292748914 0  0.8945835884523677 0.06771450301341828 0  0.9273154738621466 0.07268452595896095 0  0.9621473756557249 0.07433622666810945 0  1 0.06666666666666667 0  0 0.1 0  0.03424086997214931 0.1066237371426876 0  0.06773544139042842 0.1057017457953287 0  0.1005088071714507 0.1005088071714507 0  0.1330629838075689 0.09375626845958589 0  0.1658975757616872 0.08725034297126062 0  0.199304993605051 0.08223794824908778 0  0.2332738666245902 0.07966707693672534 0  0.2674547814382122 0.08014543529700209 0  0.3013297209793692 0.08371992969157674 0  0.3345848351663922 0.08992912274818132 0  0.3672345447390746 0.09807749490826012 0  0.399577991152889 0.1073231689403082 0  0.4321188963632251 0.1164943574543951 0  0.465404064018234 0.1237795089890442 0  0.4996066394228735 0.1268004491447925 0  0.533977347178001 0.1240366587219589 0  0.5675696116956741 0.1167753893465349 0  0.6004072685098522 0.1074854488178207 0  0.6330019536420766 0.09810120774168431 0  0.6658622302435527 0.08985788688924443 0  0.6992868210551997 0.08362112844867524 0  0.7332685693884393 0.08008581965117323 0  0.7674610646371181 0.0796787229712044 0  0.8013488968364829 0.08228970846771656 0  0.834621214021714 0.08727677260309151 0  0.8672966267518573 0.09369316082810647 0  0.899680525003862 0.1003194746957305 0  0.9322854967607467 0.1054164113571298 0  0.9656679584946726 0.1063868167172433 0  1 0.1 0  0 0.1333333333333333 0  0.03109589992301128 0.1382533669837844 0  0.06226229907453184 0.1376781039305289 0  0.09375626845958594 0.1330629838075688 0  0.1260459455378666 0.1260459455378665 0  0.1596450805697769 0.1182713811865403 0  0.1949125568579471 0.1115011650601141 0  0.2317437552629902 0.1076345952825575 0  0.2692089254285241 0.1081652694128044 0  0.3058322868329411 0.1130798033272035 0  0.3408200128688116 0.1210060113697448 0  0.3741515845006714 0.1303184624656274 0  0.4062153656857951 0.1396105960580697 0  0.4375354688138468 0.1476584741675597 0  0.4686001669896185 0.153285152908528 0  0.4997094664838264 0.1554193377025812 0  0.5308894455899008 0.1535179408566217 0  0.56212307383567 0.1480088848883346 0  0.5936656330639501 0.1399431426742286 0  0.6259887710917516 0.1305328003000384 0  0.6596107721728929 0.1210632326199615 0  0.6948945135350253 0.1130202592037962 0  0.7317385122051323 0.1080981601024261 0  0.769215422013629 0.1076392868322815 0  0.8058515544018682 0.1115023702853246 0  0.840855487110104 0.1181626805968662 0  0.8742098100910405 0.1257901893189226 0  0.9063068387674549 0.1327033728791726 0  0.9376751968222033 0.1373185490217017 0  0.9688067423483029 0.1380260982735048 0  1 0.1333333333333333 0  0 0.1666666666666667 0  0.0286538438560481 0.1699878813013262 0  0.05759959291023049 0.1695578228582517 0  0.08725034297126062 0.1658975757616871 0  0.1182713811865404 0.1596450805697768 0  0.1516199803002226 0.1516199803002225 0  0.1884237023851386 0.1433089665965256 0  0.2292077935933468 0.1376200942517666 0  0.2719706881519948 0.1381357382882747 0  0.3123103224779375 0.1446764736321071 0  0.3487078164298959 0.1538441086563494 0  0.3817942493117531 0.1630745300192521 0  0.4126574893651084 0.1711214875388518 0  0.4422166138113868 0.1773773707210485 0  0.4711254091457073 0.1814198996588632 0  0.4998042836192118 0.1829008661293234 0  0.5285131045775308 0.1816486471630872 0  0.5575024499012706 0.1777785043585232 0  0.5871855134495807 0.1716043134094487 0  0.6182294907147361 0.1635263767374703 0  0.6515942165124035 0.1541399596017207 0  0.6884098367817385 0.1447353051046666 0  0.7292038472039547 0.1380625875932256 0  0.7719761632148079 0.1376160150422139 0  0.81232564219203 0.1431815506878514 0  0.8487349286023819 0.151265069985093 0  0.8818373185339842 0.1591445121637823 0  0.9127232269221822 0.1653787856009414 0  0.9423142936878695 0.1691357577088795 0  0.9712663007086252 0.1697523217140487 0  0.9999999999999999 0.1666666666666667 0  0 0.2 0  0.02701120716947421 0.2019303695704328 0  0.05429627111207245 0.2016619674018478 0  0.08223794824908778 0.1993049936050509 0  0.1115011650601141 0.1949125568579469 0  0.1433089665965256 0.1884237023851383 0  0.1799814782732051 0.179981478273205 0  0.2250355852528031 0.17197981629851 0  0.2763301588287211 0.1723642623759154 0  0.3205032822496975 0.1806377012776321 0  0.3568068528175951 0.1895235354622475 0  0.3884788652567857 0.19683391305756 0  0.4176804265144179 0.2024369297677684 0  0.4455913969933504 0.2064624246335817 0  0.4728693152958783 0.208952364663418 0  0.4999002052316212 0.2098715322452613 0  0.5269421998476866 0.2091847191578836 0  0.5542506774038173 0.2069025345730318 0  0.5822092056593881 0.2030409109120886 0  0.6114838687735115 0.1975347466037539 0  0.6432990668438306 0.1901997405241201 0  0.6799764066818912 0.1810481566980617 0  0.725034468967762 0.1723252268859088 0  0.7763331446697632 0.1719249826174157 0  0.8205101580683523 0.179489836695737 0  0.8568184466614148 0.1876743562540092 0  0.8884976286666413 0.1941484450140389 0  0.9177102911255491 0.1986511029148013 0  0.9456376780271386 0.2011882508437808 0  0.9729385724216436 0.2016819095298475 0  1 0.2 0  0 0.2333333333333334 0  0.02625412073888547 0.2340413516267335 0  0.05271199778615809 0.2340210627968722 0  0.0796670769367253 0.2332738666245901 0  0.1076345952825574 0.23174375526299 0  0.1376200942517666 0.2292077935933465 0  0.17197981629851 0.2250355852528029 0  0.2181400007141057 0.2181400007141056 0  0.2827901816480763 0.2174579764143584 0  0.328081367064951 0.2241585086813884 0  0.3623935951656582 0.2287361641692842 0  0.3923722617232968 0.2317659916814942 0  0.4203332554561789 0.2338788447617109 0  0.4472832921165761 0.2353438409218392 0  0.4737401437208759 0.2362568887369986 0  0.4999995454717331 0.236639773106115 0  0.526261049843528 0.2364903147837718 0  0.5527233645152192 0.2358020035499583 0  0.5796804426108186 0.2345502365699638 0  0.6076479874382908 0.2326444638612834 0  0.6376319213937439 0.2298249411392869 0  0.6719886694385174 0.2254204354836093 0  0.7181442334594944 0.2182700102897139 0  0.7827884625805652 0.2172114829734922 0  0.8280749986097511 0.2236668554059754 0  0.8623839818427494 0.2280238369910841 0  0.8923607127259604 0.2307845780476677 0  0.920321277021123 0.232538935403741 0  0.9472727906650275 0.2335190376514559 0  0.9737335642258916 0.233785586917513 0  1 0.2333333333333334 0  0 0.2666666666666667 0  0.02645369775509008 0.2662116676924177 0  0.05307668712254322 0.2664759982918994 0  0.08014543529700209 0.2674547814382122 0  0.1081652694128044 0.269208925428524 0  0.1381357382882747 0.2719706881519945 0  0.1723642623759155 0.2763301588287209 0  0.2174579764143585 0.2827901816480762 0  0.2817377947253247 0.2817377947253246 0  0.3276961499532892 0.2745892088023297 0  0.3619697511115273 0.2701851176228111 0  0.3919452206328348 0.26736497304892 0  0.419969637407949 0.265457490075853 0  0.4470404573285106 0.264
[...]
<CellData  Scalars="q"> 
<DataArray  type="Float64"  Name="q"  format="ascii">1.0136024309517417e+00   1.0136024309517417e+00   1.0000000000000000e+00   1.0000000000000000e+00   1.0000000000000000e+00   1.0000000000000000e+00   1.0000000000000000e+00   1.0000000000000000e+00   1.0022455806465782e+00   1.0000000000000000e+00   1.0155993502255514e+00   1.0050323370746155e+00   1.0245886613913013e+00   1.0177459424092898e+00   1.0243020242846783e+00   1.0226398159670707e+00   1.0145640693939189e+00   1.0169177225355461e+00   1.0003645891629280e+00   1.0035087261587736e+00   1.0000000000000000e+00   1.0000000000000000e+00   1.0000000000000000e+00   1.0000000000000000e+00   1.0105708383708949e+00   1.0000000000000000e+00   1.0483667536403423e+00   1.0000000000000000e+00   1.0978144382516430e+00   1.0306146564303025e+00   1.0779709640328279e+00   1.0535722186108019e+00   1.0258913971333823e+00   1.0196567857774967e+00   1.0000000000000000e+00   1.0000000000000000e+00   1.0000000000000000e+00   1.0000000000000000e+00   1.0000000000000000e+00   1.0000000000000000e+00   1.0108156830464383e+00   1.0000000000000000e+00   1.0224115749181082e+00   1.0141985693177296e+00   1.0254938280642909e+00   1.0221843403363406e+00   1.0187217248466791e+00   1.0196688937071938e+00   1.0059708260151918e+00   1.0085034069927687e+00   1.0000000000000000e+00   1.0000000000000000e+00   1.0000000000000000e+00   1.0000000000000000e+00   1.0000000000000000e+00   1.0000000000000000e+00   1.0184547588484254e+00   1.0000000000000000e+00   1.0036238748614621e+00   1.0219983803921169e+00   1.0000000000000000e+00   1.0000000000000000e+00   1.0012227923157626e+00   1.0012227923157626e+00   1.0000000000000000e+00   1.0154484771967709e+00   1.0000000000000000e+00   1.0113911081622635e+00   1.0000000000000000e+00   1.0082248166412513e+00   1.0071642937394887e+00   1.0105211891411465e+00   1.0166562089295219e+00   1.0158669758547345e+00   1.0195512603905061e+00   1.0193332216545883e+00   1.0144397015372406e+00   1.0182982120656532e+00   1.0055005769033638e+00   1.0149538255911670e+00   1.0000000000000000e+00   1.0143389222344543e+00   1.0002851637054011e+00   1.0196228305689445e+00   1.0059046530161413e+00   1.0273477897061856e+00   1.0026282725066582e+00   1.0270576086179934e+00   1.0000000000000000e+00   1.0061118846750892e+00   1.0164051530545590e+00   1.0051084790023777e+00   1.0214440601297547e+00   1.0331561312164117e+00   1.0043867763047352e+00   1.0349291598008130e+00   1.0000000000000000e+00   1.0193870909308060e+00   1.0000000000000000e+00   1.0096773155816892e+00   1.0033835086818250e+00   1.0090083837682942e+00   1.0141803754833310e+00   1.0140183315031741e+00   1.0193988030179870e+00   1.0186725892972910e+00   1.0163844001198898e+00   1.0190088259077175e+00   1.0082065120519768e+00   1.0158723126017959e+00   1.0007042993937674e+00   1.0132849523941492e+00   1.0000000000000000e+00   1.0137200391782744e+00   1.0000000000000000e+00   1.0139541538748116e+00   1.0004043447901889e+00   1.0055563147644069e+00   1.0184547596593396e+00   1.0000000000000000e+00   1.0000000000000000e+00   1.0000000000000000e+00   1.0154484771967711e+00   1.0000000000000000e+00   1.0517553465094835e+00   1.0517553465094838e+00   1.0513096054010569e+00   1.0657165959973607e+00   1.0393574381468367e+00   1.0587588108402333e+00   1.0281114728175162e+00   1.0419387368789959e+00   1.0220490627118559e+00   1.0278082659157401e+00   1.0216402398368452e+00   1.0227716926350940e+00   1.0268497513563899e+00   1.0292362842922667e+00   1.0378744553827142e+00   1.0456534537806477e+00   1.0535311155308520e+00   1.0669730199589069e+00   1.0684374077694014e+00   1.0845168030726997e+00   1.0708153276991075e+00   1.0866243150045023e+00   1.0489934943163379e+00   1.0629815913415774e+00   1.0141884681039148e+00   1.0233377067892162e+00   1.0211994411918892e+00   1.0122003799452206e+00   1.0697335957556677e+00   1.0584781261993634e+00   1.0861210985354515e+00   1.0951490506819022e+00   1.0699334470551907e+00   1.0945714888760771e+00   1.0477326173098169e+00   1.0739567213801358e+00   1.0309632514585974e+00   1.0488996322665114e+00   1.0225124470295561e+00   1.0301981384072767e+00   1.0211794092589184e+00   1.0226862614691374e+00   1.0251782150051478e+00   1.0269590726889624e+00   1.0330932714293068e+00   1.0396798081789242e+00   1.0425131358672384e+00   1.0543545512483488e+00   1.0469311076557006e+00   1.0614029968352270e+00   1.0355189513213066e+00   1.0497976360942165e+00   1.0000000000000000e+00   1.0139541548185087e+00   1.0000000000000000e+00   1.0000000000000000e+00   1.0000000000000000e+00   1.0000000000000000e+00   1.0113911081622637e+00   1.0000000000000000e+00   1.0657165959973607e+00   1.0513096054010571e+00   1.0909016557890356e+00   1.0909016557890354e+00   1.0850214432964800e+00   1.1025143355966491e+00   1.0587908370398236e+00   1.0806637758102211e+00   1.0341872487517958e+00   1.0475933030923881e+00   1.0296711261863416e+00   1.0311691364957420e+00   1.0494993469535334e+00   1.0467889811214297e+00   1.0815666355665061e+00   1.0830029373579950e+00   1.1087596795950783e+00   1.1155593121499119e+00   1.1165070870395339e+00   1.1260082691483972e+00   1.0959763129547020e+00   1.1070502866317833e+00   1.0515662826695364e+00   1.0642441077311040e+00   1.0124151475282166e+00   1.0200680466247383e+00   1.0199743478417993e+00   1.0093549643200941e+00   1.0685487595663794e+00   1.0469592102081555e+00   1.1116215598673711e+00   1.0989827065794278e+00   1.1239744025048242e+00   1.1315285587154742e+00   1.1046246553337165e+00   1.1287483762217030e+00   1.0688219045963900e+00   1.0959920524983111e+00   1.0376996843947457e+00   1.0544814163094161e+00   1.0282733276457963e+00   1.0316229567187922e+00   1.0430273275126862e+00   1.0411630328366868e+00   1.0681437156449236e+00   1.0700994910919863e+00   1.0853496090779438e+00   1.0931139876390001e+00   1.0800229299405486e+00   1.0918340425056134e+00   1.0469311084382928e+00   1.0614029976428700e+00   1.0000000000000000e+00   1.0137200401142923e+00   1.0000000000000000e+00   1.0000000000000000e+00   1.0000000000000000e+00   1.0022455806465784e+00   1.0082248166412515e+00   1.0000000000000000e+00   1.0587588108402330e+00   1.0393574381468367e+00   1.1025143355966489e+00   1.0850214432964798e+00   1.1153756658093585e+00   1.1153756658093585e+00   1.0928914667413225e+00   1.1087623012868051e+00   1.0537398512038760e+00   1.0704942297864490e+00   1.0409839851828782e+00   1.0418882754380996e+00   1.0727002019179950e+00   1.0642042579167881e+00   1.1139989382316777e+00   1.1093647479826347e+00   1.1338733927356837e+00   1.1331296649942151e+00   1.1217972496428683e+00   1.1237139032371510e+00   1.0842317433726221e+00   1.0891981118350369e+00   1.0379846663746415e+00   1.0456279510249453e+00   1.0069354238979857e+00   1.0114349919758723e+00   1.0106344226851847e+00   1.0034366883226697e+00   1.0485429813872640e+00   1.0274845962336072e+00   1.0995821173929934e+00   1.0727597536688820e+00   1.1377136137532080e+00   1.1189568915243409e+00   1.1405476894915711e+00   1.1418559408113280e+00   1.1086367318289352e+00   1.1276527652150043e+00   1.0605408667797351e+00   1.0808523942972847e+00   1.0388644995008718e+00   1.0430599199652888e+00   1.0625008945208321e+00   1.0561898303228490e+00   1.0956038858839960e+00   1.0931980445514036e+00   1.1063252553977561e+00   1.1093970951191126e+00   1.0853496098026219e+00   1.0931139886871266e+00   1.0425131369932699e+00   1.0543545523308500e+00   1.0007042999745850e+00   1.0132849530963774e+00   1.0000000000000000e+00   1.0000000000000000e+00   1.0050323370746157e+00   1.0155993502255514e+00   1.0105211891411472e+00   1.0071642937394893e+00   1.0419387368789959e+00   1.0281114728175169e+00   1.0806637758102215e+00   1.0587908370398238e+00   1.1087623012868053e+00   1.0928914667413234e+00   1.1146677408126417e+00   1.1146677408126420e+00   1.0700377921903672e+00   1.0832853635628152e+00   1.0432449189596735e+00   1.0401861058617110e+00   1.0789994010213324e+00   1.0650124804017500e+00   1.1145783172697827e+00   1.1017488021280373e+00   1.1145632065151154e+00   1.1065558160884306e+00   1.0888686938607117e+00   1.0835163817388056e+00   1.0529246546232172e+00   1.0517990385111331e+00   1.0208718864201387e+00   1.0233421828054858e+00   1.0026033318294980e+00   1.0049731949122915e+00   1.0038749730283665e+00   1.0005013276131094e+00   1.0250487755106037e+00   1.0114871106368624e+00   1.0606710372309187e+00   1.0366762132087357e+00   1.1005744040982319e+00   1.0714047314470887e+00   1.1271153690080393e+00   1.1063769687504810e+00   1.1302365774421486e+00   1.1288022494652405e+00   1.0782588026669901e+00   1.0935933888919998e+00   1.0403302320018470e+00   1.0411961143262851e+00   1.0687228374030040e+00   1.0571299483735004e+00   1.0990388074564423e+00   1.0899189556697553e+00   1.0956038847369813e+00   1.0931980474850937e+00   1.0681437173233859e+00   1.0700994906662746e+00   1.0330932723319348e+00   1.0396798094878259e+00   1.0082065122290251e+00   1.0158723129553675e+00   1.0059708256149715e+00   1.0085034067130043e+00   1.0177459424092896e+00   1.0245886613913011e+00   1.0158669758547350e+00   1.0166562089295219e+00   1.0278082659157408e+00   1.0220490627118566e+00   1.0475933030923887e+00   1.0341872487517962e+00   1.0704942297864497e+00   1.0537398512038767e+00   1.0832853635628144e+00   1.0700377921903665e+00   1.0420897549843002e+00   1.0420897549842993e+00   1.0155029614864921e+00   1.0077304404431928e+00   1.0553797081174956e+00   1.0219597506239784e+00   1.0728268561997103e+00   1.0577423186053965e+00   1.0642898766640334e+00   1.0531201371334420e+00   1.0420920013539230e+00   1.0349122717116077e+00   1.0215920617169414e+00   1.0181598597691024e+00   1.0077369344403855e+00   1.0071464200952653e+00   1.0009440598033148e+00   1.0016294454825059e+00   1.0007632235209361e+00   1.0001249070406228e+00   1.0077346229995863e+00   1.0025219277541226e+00   1.0230090713935587e+00   1.0105314688716607e+00   1.0458514368899212e+00   1.0257199612339962e+00   1.0717465717571975e+00   1.0479467481433651e+00   1.0873030387389595e+00   1.0677901379563279e+00   1.0466237067581259e+00   1.0437649292748026e+00   1.0144106212121817e+00   1.0086386471782560e+00   1.0502828981940528e+00   1.0198487272397656e+00   1.0687228203747823e+00   1.0571299775449514e+00   1.0625008974890240e+00   1.0561897981173718e+00   1.0430273279519577e+00   1.0411630365512219e+00   1.0251782160568386e+00   1.0269590741787136e+00   1.0163844003284535e+00   1.0190088265795332e+00   1.0187217245978022e+00   1.0196688938323386e+00   1.0226398159670707e+00   1.0243020242846783e+00   1.0193332216545883e+00   1.0195512603905061e+00   1.0227716926350943e+00   1.0216402398368454e+00   1.0311691364957420e+00   1.0296711261863414e+00   1.0418882754381000e+00   1.0409839851828782e+00   1.0401861058617103e+00   1.0432449189596735e+00   1.0077304404431926e+00   1.0155029614864919e+00   1.0034051017162429e+00   1.0034051017162429e+00   1.0124873301214952e+00   1.0080262026602900e+00   1.0339185076274700e+00   1.0356010678909144e+00   1.0280421202678736e+00   1.0331611993365513e+00   1.0145989404682354e+00   1.0187750158198725e+00   1.0054257767415358e+00   1.0077048141503286e+00   1.0014151200962544e+00   1.0019642649983684e+00   1.0004075375921815e+00   1.0003103099974451e+00   1.0004446521551738e+00   1.0004600919001796e+00   1.0019693818600375e+00   1.0019157071238376e+00   1.0073358723252321e+00   1.0065174645841535e+00   1.0179651743987090e+00   1.0163278766174737e+00   1.0317932097936278e+00   1.0304053876297985e+00   1.0345075832189721e+00   1.0369603628383430e+00   1.0070929954748871e+00   1.0136207610976689e+00   1.0035619671784195e+00   1.0032495544837041e+00   1.0144107465982810e+00   1.0086386959496909e+00   1.0403301834153911e+00   1.0411960781670946e+00   1.0388644899189425e+00   1.0430599751029439e+00   1.0282733320293838e+00   1.0316229638783203e+00   1.0211794109435224e+00   1.0226862650353437e+00   1.0193988041908839e+00   1.0186725912301000e+00   1.0254938286253412e+00   1.0221843414457743e+00   1.0169177225355464e+00   1.0145640693939191e+00   1.0182982120656532e+00   1.0144397015372406e+00   1.0292362842922662e+00   1.0268497513563892e+00   1.0467889811214290e+00   1.0494993469535325e+00   1.0642042579167876e+00   1.0727002019179941e+00   1.0650124804017491e+00   1.0789994010213311e+00   1.0219597506239786e+00   1.0553797081174954e+00   1.0080262026602902e+00   1.0124873301214958e+00   1.0485200655953748e+00   1.0485200655953750e+00   1.0766514063181090e+00   1.0983858606567525e+00   1.0559705691849111e+00   1.0836165908463906e+00   1.0312896231412956e+00   1.0552867604492657e+00   1.0135398033873964e+00   1.0289270440743308e+00   1.0034156810472306e+00   1.0102433771399879e+00   1.0000312694785469e+00   1.0011310185089222e+00   1.0020375152835377e+00   1.0011897482204699e+00   1.0093607105922453e+00   1.0099368577555357e+00   1.0229060406830688e+00   1.0271488518454353e+00   1.0422083377836622e+00   1.0513600542713104e+00   1.0621122972929633e+00   1.0762783049711120e+00   1.0660938409690397e+00   1.0840303823318094e+00   1.0242080659038661e+00   1.0608516040760241e+00   1.0070930281953141e+00   1.0136208828985276e+00   1.0466237920037536e+00   1.0437650042746605e+00   1.0782588476655586e+00   1.0935936049365818e+00   1.0605409262608603e+00   1.0808524900469565e+00   1.0376996889473853e+00   1.0544814162736749e+00   1.0225124511433576e+00   1.0301981461251244e+00   1.0141803777033109e+00   1.0140183334979826e+00   1.0224115763130921e+00   1.0141985709957704e+00   1.0035087261587738e+00   1.0003645891629283e+00   1.0149538255911665e+00   1.0055005769033634e+00   1.0456534537806466e+00   1.0378744553827128e+00   1.0830029373579935e+00   1.0815666355665046e+00   1.1093647479826338e+00   1.1139989382316764e+00   1.1017488021280364e+00   1.1145783172697821e+00   1.0577423186053962e+00   1.0728268561997092e+00   1.0356010678909158e+00   1.0339185076274708e+00   1.0983858606567538e+00   1.0766514063181110e+00   1.1463028395406083e+00   1.1463028395406092e+00   1.1254192613433867e+00   1.1495563922599152e+00   1.0865670944062100e+00   1.1215747937682903e+00   1.0458067880024191e+00   1.0750754854520874e+00   1.0152431159607425e+00   1.0322913940055096e+00   1.0015074023026853e+00   1.0063973890419735e+00   1.0068864196077147e+00   1.0046286122322061e+00   1.0294503622510756e+00   1.0268507637104451e+00   1.0637781203892356e+00   1.0657299907632043e+00   1.1007263048717526e+00   1.1084502673805323e+00   1.1253776397469608e+00   1.1370220456655227e+00   1.1149131033117261e+00   1.1323469241276374e+00   1.0660938922151315e+00   1.0840303617993639e+00   1.0345075594085009e+00   1.0369603366320963e+00   1.0873032422333724e+00   1.0677901610106471e+00   1.1302369466202316e+00   1.1288026334857892e+00   1.1086367983441630e+00   1.1276527350100971e+00   1.0688219158091619e+00   1.0959920665990694e+00   1.0309632569449716e+00   1.0488996386562897e+00   1.0033835104018338e+00   1.0090083852024314e+00   1.0108156844640013e+00   1.0000000000000000e+00   1.0000000000000000e+00   1.0000000000000000e+00   1.0143389222344534e+00   1.0000000000000000e+00   1.0669730199589049e+00   1.0535311155308500e+00   1.1155593121499106e+00   1.1087596795950767e+00   1.1331296649942113e+00   1.1338733927356801e+00   1.1065558160884299e+00   1.1145632065151119e+00   1.0531201371334427e+00   1.0642898766640341e+00   1.0331611993365528e+00   1.0280421202678744e+00   1.0836165908463937e+00   1.0559705691849139e+00   1.1495563922599152e+00   1.1254192613433878e+00   1.1732923513857689e+00   1.1732923513857674e+00   1.1482592225265733e+00   1.1740661481166415e+00   1.0928094771064731e+00   1.1282433256401465e+00   1.0376422212654854e+00   1.0655368044917313e+00   1.0080613351090426e+00   1.0186621947767904e+00   1.0175422996772625e+00   1.0136081162611599e+00   1.0593699017384088e+00   1.0516486956929652e+00   1.1129811761006689e+00   1.1094425806607369e+00   1.1544148459829107e+00   1.1563870094530384e+00   1.1620106927391700e+00   1.1687909917848329e+00   1.1253776456247093e+00   1.1370220447678121e+00   1.0621122660665105e+00   1.0762783130965548e+00   1.0317932489558288e+00   1.0304053783726785e+00   1.0717466611252295e+00   1.0479467871898125e+00   1.1271153545659405e+00   1.1063770560024655e+00   1.1405476054479466e+00   1.1418558498906686e+00   1.1046246611038197e+00   1.1287484014490821e+00   1.0477326184441704e+00   1.0739567196346749e+00   1.0000000000000000e+00   1.0096773172227378e+00   1.0000000000000000e+00   1.0000000000000000e+00   1.0000000000000000e+00   1.0000000000000000e+00   1.0196228305689430e+00   1.0002851637053998e+00   1.0845168030726973e+00   1.0684374077693986e+00   1.1260082691483964e+00   1.1165070870395315e+00   1.1237139032371473e+00   1.1217972496428674e+00   1.0835163817388003e+00   1.0888686938607055e+00   1.0349122717116082e+00   1.0420920013539208e+00   1.0187750158198745e+00   1.0145989404682374e+00   1.0552867604492677e+00   1.0312896231412969e+00   1.1215747937682878e+00   1.0865670944062087e+00   1.1740661481166377e+00   1.1482592225265669e+00   1.1811443322871527e+00   1.1811443322871502e+00   1.1369904644763624e+00   1.1625515523260157e+00   1.0685068288423838e+00   1.1004842640415426e+00   1.0214130378224886e+00   1.0368380270905466e+00   1.0345580872839966e+00   1.0279948375161343e+00   1.0915048501044868e+00   1.0790254380589865e+00   1.1489830130701857e+00   1.1407398901655705e+00   1.1737154270286769e+00   1.1707141219041279e+00   1.1544148477875749e+00   1.1563870105918335e+00   1.1007263057036654e+00   1.1084502706469874e+00   1.0422083435565939e+00   1.0513600562805456e+00   1.0179651804128360e+00   1.0163278804910090e+00   1.0458514385482620e+00   1.0257199621261428e+00   1.1005744178860362e+00   1.0714047472407739e+00   1.1377136333562470e+00   1.1189568908632772e+00   1.1239744179035653e+00   1.1315285757808093e+00   1.0699334442509727e+00   1.0945714840471270e+00   1.0000000000000000e+00   1.0193870911232907e+00   1.0000000000000000e+00   1.0000000000000000e+00   1.0000000000000000e+00   1.0105708383708962e+00   1.0273477897061836e+00   1.0059046530161408e+00   1.0866243150044983e+00   1.0708153276991041e+00   1.1070502866317804e+00   1.0959763129546980e+00   1.0891981118350342e+00   1.0842317433726190e+00   1.0517990385111293e+00   1.0529246546232143e+00   1.0181598597691004e+00   1.0215920617169385e+00   1.0077048141503302e+00   1.0054257767415360e+00   1.0289270440743308e+00   1.0135398033873972e+00   1.0750754854520841e+00   1.0458067880024171e+00   1.1282433256401405e+00   1.0928094771064685e+00   1.1625515523260153e+00   1.1369904644763609e+00   1.1570736703794458e+00   1.1570736703794475e+00   1.1032034368337766e+00   1.1287844358417529e+00   1.0380209878561677e+00   1.0586880264588554e+00   1.0500869867197715e+00   1.0412662990979988e+00   1.1106352257983629e+00   1.0938180379056197e+00   1.1510838651139994e+00   1.1392001952837201e+00   1.1489830141656043e+00   1.1407398911408606e+00   1.1129811780002621e+00   1.1094425824746179e+00   1.0637781232101609e+00   1.0657299928268475e+00   1.0229060433389807e+00   1.0271488540698857e+00   1.0073358739469331e+00   1.0065174658877769e+00   1.0230090762772597e+00   1.0105314702352364e+00   1.0606710429254926e+00   1.0366762177808879e+00   1.0995821158172570e+00   1.0727597540327272e+00   1.1116215558677418e+00   1.0989827037936011e+00   1.0861210911445995e+00   1.0951490429826536e+00   1.0043867751482223e+00   1.0349291545440782e+00   1.0000000000000000e+00   1.0000000000000000e+00   1.0000000000000000e+00   1.0483667536403427e+00   1.0270576086179932e+00   1.0026282725066584e+00   1.0629815913415754e+00   1.0489934943163373e+00   1.0642441077311009e+00   1.0515662826695344e+00   1.0456279510249413e+00   1.0379846663746388e+00   1.0233421828054836e+00   1.0208718864201363e+00   1.0071464200952644e+00   1.0077369344403846e+00   1.0019642649983687e+00   1.0014151200962540e+00   1.0102433771399875e+00