<?xml version="1.0"?>
<VTKFile type="UnstructuredGrid"  version="0.1"  >
<UnstructuredGrid>
<Piece  NumberOfPoints="961" NumberOfCells="1800">
<Points>
<DataArray  type="Float64"  NumberOfComponents="3"  format="ascii">0 0 0  0.03333333333333333 0 0  0.06666666666666667 0 0  0.09999999999999999 0 0  0.1333333333333333 0 0  0.1666666666666667 0 0  0.2 0 0  0.2333333333333333 0 0  0.2666666666666667 0 0  0.3 0 0  0.3333333333333333 0 0  0.3666666666666666 0 0  0.4 0 0  0.4333333333333333 0 0  0.4666666666666667 0 0  0.5 0 0  0.5333333333333333 0 0  0.5666666666666667 0 0  0.6 0 0  0.6333333333333333 0 0  0.6666666666666666 0 0  0.7 0 0  0.7333333333333333 0 0  0.7666666666666667 0 0  0.8 0 0  0.8333333333333334 0 0  0.8666666666666667 0 0  0.9 0 0  0.9333333333333335 0 0  0.9666666666666667 0 0  1 0 0  0 0.03333333333333333 0  0.03640864424331705 0.03640864424331705 0  0.071179267665719 0.03576478993682495 0  0.1044792772068036 0.03378426677463729 0  0.1370506232738264 0.03165565876768404 0  0.1693663702396987 0.02985952597621846 0  0.2016389422784347 0.02860946208403238 0  0.2339322126753221 0.02802052346615998 0  0.2662359747801852 0.02815640422718657 0  0.298517504398441 0.0290400289845888 0  0.3307672910864379 0.03066231119510151 0  0.3630487054266676 0.03299197062431879 0  0.3955690571616265 0.03596087875025165 0  0.428787701095872 0.0393585019727804 0  0.463441064342779 0.04250949785572219 0  0.4998219139287721 0.04391290984262448 0  0.5363124648073015 0.04245514887787613 0  0.5711259806041858 0.03925740392663543 0  0.6044487690974618 0.03584559019497371 0  0.6370328259802329 0.03288555764940869 0  0.669356156260809 0.03057726292402646 0  0.7016336698477993 0.02898415701876068 0  0.7339306126756773 0.02813476240223055 0  0.7662376710542356 0.02803487541116527 0  0.798522879802026 0.02865772280670758 0  0.8307776244551717 0.02993630489609816 0  0.8630666556018983 0.03175287028836789 0  0.8955997812798349 0.03388965174057577 0  0.9288413017504077 0.03585755877156797 0  0.9635376259154501 0.0364623740843827 0  1 0.03333333333333333 0  0 0.06666666666666667 0  0.03576478993682495 0.071179267665719 0  0.07048715370802093 0.07048715370802093 0  0.1039900076504862 0.06729681094509891 0  0.1367234601574752 0.06347932082868529 0  0.1691435111001966 0.06005615444274918 0  0.2015190033725562 0.05758189531637484 0  0.233941342605444 0.05638060688033198 0  0.2663833678555973 0.05662568386587036 0  0.2987768221636111 0.05835394561162835 0  0.3310972084261324 0.06148071246574532 0  0.3634368425010095 0.06581778759577066 0  0.3960599051398466 0.07103841167438094 0  0.4294173805479565 0.07651759564728929 0  0.4639923623058914 0.08105583390785319 0  0.4997494539368403 0.08292042691330297 0  0.535614770299538 0.08108759018472771 0  0.5703979011186889 0.07651045773660271 0  0.6039366227707641 0.07097296451682851 0  0.6366915175466388 0.06571806056475611 0  0.6691249125907317 0.06137862291260768 0  0.7015093285215255 0.05827695228317863 0  0.7339383997284719 0.05659292459847859 0  0.7663864961888903 0.05639911566094847 0  0.7987866854153369 0.05764454746578851 0  0.83111600044937 0.06014394829511709 0  0.8634689818553162 0.06356565240280188 0  0.8961134756792485 0.06735235247204098 0  0.9295067704361094 0.07049322956382095 0  0.9641424412286045 0.0711586982492405 0  1 0.06666666666666667 0  0 0.09999999999999999 0  0.03378426677463729 0.1044792772068036 0  0.0672968109450989 0.1039900076504861 0  0.1004568839076241 0.100456883907624 0  0.1334502080792588 0.09566105258628486 0  0.1665265560556275 0.09096393825585822 0  0.1998462340522666 0.08734973750588756 0  0.2334074140684491 0.08550653107594337 0  0.2670507250377532 0.08582045755597446 0  0.3005533671785816 0.08832847028731666 0  0.3337680225240995 0.0927409846826254 0  0.3667067194365463 0.0985268838274167 0  0.3995421829618116 0.104953679168748 0  0.4325449330334637 0.1110475502760314 0  0.4659485686494765 0.1155795603747137 0  0.4997502525322879 0.117317977554575 0  0.5336223343747941 0.115670152285781 0  0.567194029134388 0.1111540504659782 0  0.6003924068826771 0.1050097133244644 0  0.6334103529378621 0.09851482124873567 0  0.6665028591730826 0.09268250491021478 0  0.6998337560917196 0.08826344441822581 0  0.7334036053285925 0.08578656403995658 0  0.7670547989049156 0.0855197305674632 0  0.8005660998354327 0.08739473094655145 0  0.8337919484544726 0.09100409474472254 0  0.8667467506358925 0.09565849070299522 0  0.899606737612438 0.1003932623875253 0  0.9326476475279545 0.1038865243207084 0  0.9661103482594331 0.1044002187200912 0  1 0.1 0  0 0.1333333333333333 0  0.03165565876768402 0.1370506232738263 0  0.06347932082868529 0.1367234601574751 0  0.09566105258628491 0.1334502080792588 0  0.1284706602912458 0.1284706602912458 0  0.1621664644420822 0.1230649182345285 0  0.1968610131682941 0.1185228684307267 0  0.2323753559421541 0.1160305706543294 0  0.2681795286691392 0.1163600340499419 0  0.3035877088597256 0.1195323208913796 0  0.3381152953905009 0.1248602650892254 0  0.3716308507126785 0.1313221397135448 0  0.40427833308993 0.1378625447809601 0  0.4363377397744678 0.1435011646695223 0  0.4681017195625916 0.1473665710113254 0  0.4997859296496832 0.1487901357716759 0  0.5315100558560798 0.147489842271839 0  0.5633825860793168 0.1436939863405837 0  0.595597899379401 0.1380512405078572 0  0.6284303342148232 0.1314483060832326 0  0.6621418882502875 0.1249034696504374 0  0.6968478588133856 0.1195170792558547 0  0.732371324651056 0.1163367602046011 0  0.7681838971179765 0.1160273087169433 0  0.8036011712445105 0.118513338044964 0  0.8381401207773729 0.1230004361952159 0  0.8716713322848639 0.1283286677151023 0  0.9043415092969923 0.1332532493640919 0  0.936434347597196 0.136531018144656 0  0.9682471297116182 0.1369333443980399 0  1 0.1333333333333333 0  0 0.1666666666666667 0  0.02985952597621843 0.1693663702396986 0  0.06005615444274913 0.1691435111001964 0  0.09096393825585822 0.1665265560556274 0  0.1230649182345285 0.1621664644420822 0  0.1569074790089386 0.1569074790089386 0  0.1929084155037147 0.1519628986706013 0  0.2309019120441885 0.1489471673528225 0  0.2696883281562771 0.1492221751089457 0  0.3075118330239144 0.1527843821273642 0  0.3432993019051086 0.158350753186236 0  0.3769660401944432 0.1644716752327416 0  0.408944944360968 0.1701087930973211 0  0.4397801608351747 0.1746031728965625 0  0.4699524226737098 0.1775198877750113 0  0.4998399932635465 0.1785776986935664 0  0.5297480989507889 0.177663434314853 0  0.5599801764595941 0.1748567143377646 0  0.5909130287244759 0.1704143695031979 0  0.6230315769878143 0.1647589078661641 0  0.6568866676562206 0.1585539328367495 0  0.6928970566504215 0.1528738605687352 0  0.7308984231637412 0.1492294491987962 0  0.76969222376123 0.1489081379332993 0  0.807523553620188 0.1518444265323093 0  0.8433203989938389 0.1566796010061105 0  0.8769995638047672 0.1618598792226232 0  0.9089959052552748 0.1662080515455156 0  0.9398560517048646 0.1688839995505905 0  0.9700636951038939 0.1692223755447918 0  1 0.1666666666666667 0  0 0.2 0  0.02860946208403237 0.2016389422784346 0  0.05758189531637479 0.2015190033725561 0  0.08734973750588752 0.1998462340522665 0  0.1185228684307267 0.1968610131682941 0  0.1519628986706013 0.1929084155037147 0  0.1886990855366375 0.1886990855366376 0  0.2291497459485688 0.1857352465655475 0  0.2713594127941984 0.1858585176967087 0  0.3115983380194388 0.1890779625969343 0  0.3481426507858177 0.1936518821912333 0  0.3814664542813679 0.1981826105008099 0  0.4125748160091555 0.2020318176532393 0  0.4423103341327357 0.2049382556686486 0  0.4712763600523367 0.2067696010313728 0  0.4999053408230519 0.207444082347946 0  0.5285434451033584 0.2069257338580333 0  0.5575367642146536 0.2052312697788804 0  0.5873194145163639 0.2024246024253903 0  0.6185029233303102 0.1986193745762074 0  0.65195034110148 0.1940538171512377 0  0.6886921503642173 0.1893490744593192 0  0.7291476564131444 0.1859367574775945 0  0.7713619849649561 0.1856206257445993 0  0.8116057110129929 0.1883942889868311 0  0.8481555734676264 0.1924764463798616 0  0.8814866619550353 0.1963988287554925 0  0.9126052690534244 0.1994339001645335 0  0.9423554525341951 0.2012133145846354 0  0.9713422771932917 0.2014771201979618 0  1 0.2 0  0 0.2333333333333333 0  0.02802052346615995 0.2339322126753219 0  0.05638060688033193 0.2339413426054438 0  0.08550653107594333 0.2334074140684489 0  0.1160305706543294 0.2323753559421539 0  0.1489471673528225 0.2309019120441884 0  0.1857352465655474 0.2291497459485688 0  0.2276796663989972 0.2276796663989973 0  0.2725493883348943 0.2275536450871572 0  0.3143786224661331 0.2289041735596916 0  0.3510905009448925 0.2307447155923774 0  0.3839701121673746 0.232459743062401 0  0.4144754822494801 0.2338632104006579 0  0.4435924324155328 0.2349090065526843 0  0.4719509667791782 0.2355790887043793 0  0.4999774082671503 0.2358592986942701 0  0.528006307056802 0.2357401149461639 0  0.5563722067540036 0.2352194698562088 0  0.5855019548654481 0.2343003578358538 0  0.6160283507022782 0.2329875018846586 0  0.6489462811825528 0.2313024986460646 0  0.6857350441901056 0.2293764871581273 0  0.7276798213886235 0.2277424007417771 0  0.7725498141075643 0.2274501858905035 0  0.8143793742546875 0.228638015035796 0  0.8510918620667374 0.2303077762388274 0  0.8839726912830169 0.2318161028819771 0  0.9144802694325128 0.2329452010950618 0  0.9436008843390501 0.2336135038111007 0  0.9719651245888372 0.2337623289457599 0  1 0.2333333333333333 0  0 0.2666666666666667 0  0.02815640422718656 0.2662359747801851 0  0.05662568386587032 0.2663833678555971 0  0.08582045755597441 0.267050725037753 0  0.1163600340499418 0.2681795286691391 0  0.1492221751089456 0.2696883281562772 0  0.1858585176967086 0.2713594127941985 0  0.2275536450871571 0.2725493883348945 0  0.272259650011266 0.2722596500112661 0  0.3140699629498195 0.2706274863573795 0  0.3507819006515754 0.2687024820647708 0  0.3836796732547375 0.2670176131958641 0  0.4142359395934719 0.2657041178377922 0  0.44343
[...]
<CellData  Scalars="q"> 
<DataArray  type="Float64"  Name="q"  format="ascii">1.0031455359456747e+00   1.0031455359456747e+00   1.0000000000000000e+00   1.0000000000000000e+00   1.0000000000000000e+00   1.0000000000000000e+00   1.0000000000000000e+00   1.0000000000000000e+00   1.0009641840990497e+00   1.0000000000000000e+00   1.0079034562749321e+00   1.0021515734612776e+00   1.0126549259212421e+00   1.0086834096571962e+00   1.0126004941882789e+00   1.0112768636159271e+00   1.0075904828043725e+00   1.0084165382275372e+00   1.0001531591545199e+00   1.0015066615173440e+00   1.0000000000000000e+00   1.0000000000000000e+00   1.0000000000000000e+00   1.0000000000000000e+00   1.0027220177529170e+00   1.0000000000000000e+00   1.0169826107423969e+00   1.0024281558566419e+00   1.0271840592588541e+00   1.0138834143102744e+00   1.0220852529145128e+00   1.0170071495489390e+00   1.0074629447003951e+00   1.0074725612026307e+00   1.0000000000000000e+00   1.0000000000000000e+00   1.0000000000000000e+00   1.0000000000000000e+00   1.0000000000000000e+00   1.0000000000000000e+00   1.0056802493352319e+00   1.0000000000000000e+00   1.0116569893817173e+00   1.0070486468626190e+00   1.0131296073404745e+00   1.0110602925182921e+00   1.0094926134451190e+00   1.0096644366753671e+00   1.0028203991756544e+00   1.0038632963031362e+00   1.0000000000000000e+00   1.0000000000000000e+00   1.0000000000000000e+00   1.0000000000000000e+00   1.0000000000000000e+00   1.0000000000000000e+00   1.0052955865376654e+00   1.0000116855270726e+00   1.0006597084017246e+00   1.0052247967485672e+00   1.0000000000000000e+00   1.0000000000000000e+00   1.0000000000000000e+00   1.0000000000000000e+00   1.0000000000000000e+00   1.0045098392503884e+00   1.0000000000000000e+00   1.0047178788502906e+00   1.0000000000000000e+00   1.0038265233539552e+00   1.0028298072083139e+00   1.0046174472558704e+00   1.0073126753174471e+00   1.0066830136600295e+00   1.0087949526459778e+00   1.0081530701628936e+00   1.0064739678348644e+00   1.0079042814837382e+00   1.0021190053379370e+00   1.0066941671415859e+00   1.0000000000000000e+00   1.0063723062233869e+00   1.0000000000000000e+00   1.0077762005247353e+00   1.0000000000000000e+00   1.0090455804755984e+00   1.0011516807468688e+00   1.0067645629918498e+00   1.0032757761948008e+00   1.0019909520040824e+00   1.0066354752353384e+00   1.0028533691530739e+00   1.0058421540023115e+00   1.0089778115432795e+00   1.0003855091408873e+00   1.0109810481377224e+00   1.0000000000000000e+00   1.0076123727667381e+00   1.0000000000000000e+00   1.0042637850718343e+00   1.0010845789687890e+00   1.0039191913984928e+00   1.0062080435271161e+00   1.0058908382369975e+00   1.0087107422865731e+00   1.0078585310343007e+00   1.0073346179648213e+00   1.0081811968427945e+00   1.0034353409301806e+00   1.0071075430945156e+00   1.0000000000000000e+00   1.0060842095952587e+00   1.0000000000000000e+00   1.0057328296128005e+00   1.0000000000000000e+00   1.0046099923210707e+00   1.0007343404474573e+00   1.0008144499061491e+00   1.0052955865374289e+00   1.0000116855265213e+00   1.0000000000000000e+00   1.0000000000000000e+00   1.0045098392503884e+00   1.0000000000000000e+00   1.0196644519591951e+00   1.0196644519591951e+00   1.0234392486360733e+00   1.0303703664840427e+00   1.0189333684308566e+00   1.0283588208980388e+00   1.0126261210227667e+00   1.0194948032180726e+00   1.0084627104672947e+00   1.0110016290628072e+00   1.0079477003367914e+00   1.0076743140590079e+00   1.0112734115233186e+00   1.0112848544837898e+00   1.0178036946175779e+00   1.0206569588636438e+00   1.0255562708566499e+00   1.0319716928493734e+00   1.0304670148605284e+00   1.0394118781767134e+00   1.0272254461159602e+00   1.0369439167043963e+00   1.0142557504266039e+00   1.0226736836435775e+00   1.0012791535907819e+00   1.0050827274223966e+00   1.0041740084423390e+00   1.0012971211167696e+00   1.0208087582015886e+00   1.0175243597783286e+00   1.0323618964354733e+00   1.0365016752917060e+00   1.0310407545968321e+00   1.0421873814824241e+00   1.0226170503998888e+00   1.0350556816870142e+00   1.0139928071165809e+00   1.0226820961466807e+00   1.0087492555833655e+00   1.0121546004865023e+00   1.0077446216962225e+00   1.0076648450637324e+00   1.0104663551687778e+00   1.0102354798365925e+00   1.0156256542358513e+00   1.0179474221036107e+00   1.0207773458282083e+00   1.0264033860725110e+00   1.0216239565060010e+00   1.0295592454026676e+00   1.0141850819809748e+00   1.0221496907855596e+00   1.0000000000000000e+00   1.0046099923207159e+00   1.0000000000000000e+00   1.0000000000000000e+00   1.0000000000000000e+00   1.0000000000000000e+00   1.0047178788502906e+00   1.0000000000000000e+00   1.0303703664840422e+00   1.0234392486360728e+00   1.0434343784923474e+00   1.0434343784923472e+00   1.0395893209912177e+00   1.0474559187685297e+00   1.0249366451323172e+00   1.0347182980426890e+00   1.0112604915255794e+00   1.0168135030641285e+00   1.0085190307244871e+00   1.0079444324639022e+00   1.0190060437020221e+00   1.0155036413804193e+00   1.0365870035512978e+00   1.0346033479895063e+00   1.0512981221465401e+00   1.0528888023548386e+00   1.0543209470158674e+00   1.0592787131783361e+00   1.0419045815020771e+00   1.0492923600144788e+00   1.0193487316312737e+00   1.0272643933508361e+00   1.0021216203207546e+00   1.0061878263388615e+00   1.0055906036362277e+00   1.0016853230342444e+00   1.0276103937023571e+00   1.0186054027574636e+00   1.0499437485267626e+00   1.0441858464333253e+00   1.0575473075930240e+00   1.0606262478331432e+00   1.0481145118366570e+00   1.0587434397217161e+00   1.0293194631389637e+00   1.0412143566429075e+00   1.0128293555224732e+00   1.0197410589289293e+00   1.0079778592891526e+00   1.0081892312188461e+00   1.0162542432863129e+00   1.0132201637690232e+00   1.0307777575604584e+00   1.0292004557389276e+00   1.0411387156711918e+00   1.0432827294479183e+00   1.0386749311422714e+00   1.0444698197216797e+00   1.0216239565059415e+00   1.0295592454025768e+00   1.0000000000000000e+00   1.0057328296127583e+00   1.0000000000000000e+00   1.0000000000000000e+00   1.0000000000000000e+00   1.0009641840990500e+00   1.0038265233539552e+00   1.0000000000000000e+00   1.0283588208980383e+00   1.0189333684308564e+00   1.0474559187685295e+00   1.0395893209912173e+00   1.0498959441283922e+00   1.0498959441283922e+00   1.0342060298301639e+00   1.0409582901063636e+00   1.0137733238496041e+00   1.0199457881368623e+00   1.0082388112964649e+00   1.0069824843106421e+00   1.0233703611073088e+00   1.0162367529198573e+00   1.0460588290470327e+00   1.0388510249481584e+00   1.0599830810284114e+00   1.0558009906379500e+00   1.0571527582778417e+00   1.0565904917253515e+00   1.0395992493990374e+00   1.0423806215913665e+00   1.0169143440745301e+00   1.0214586418020322e+00   1.0019377792804915e+00   1.0046399283824110e+00   1.0039604953407841e+00   1.0008983284606374e+00   1.0223483828783155e+00   1.0127817754415080e+00   1.0465554329295466e+00   1.0344422292475672e+00   1.0625143187330730e+00   1.0544265638844024e+00   1.0602880379033301e+00   1.0609398071588849e+00   1.0403451235657730e+00   1.0482513215231077e+00   1.0162895233876670e+00   1.0236442636334271e+00   1.0075999379381719e+00   1.0074217190775081e+00   1.0196133453047729e+00   1.0135406263665983e+00   1.0387178431994510e+00   1.0328609911609901e+00   1.0483758142222879e+00   1.0461773002411845e+00   1.0411387156711556e+00   1.0432827294479576e+00   1.0207773458280895e+00   1.0264033860724278e+00   1.0000000000000000e+00   1.0060842095951947e+00   1.0000000000000000e+00   1.0000000000000000e+00   1.0021515734612780e+00   1.0079034562749323e+00   1.0046174472558707e+00   1.0028298072083142e+00   1.0194948032180724e+00   1.0126261210227665e+00   1.0347182980426888e+00   1.0249366451323165e+00   1.0409582901063636e+00   1.0342060298301636e+00   1.0310606933043638e+00   1.0310606933043638e+00   1.0119022427450757e+00   1.0154482625660959e+00   1.0050897264863705e+00   1.0034114919925838e+00   1.0192450298943827e+00   1.0103497416867258e+00   1.0384567666251157e+00   1.0278498330271848e+00   1.0464780147454662e+00   1.0380439669685630e+00   1.0402012537265826e+00   1.0353114266091654e+00   1.0254254954561335e+00   1.0242002530161467e+00   1.0101617058249230e+00   1.0114550431590938e+00   1.0010505346101877e+00   1.0023996623154663e+00   1.0017996748427049e+00   1.0002012590414191e+00   1.0123539746026928e+00   1.0057607884801798e+00   1.0287317924333510e+00   1.0174903853787121e+00   1.0436327530058702e+00   1.0310936299425268e+00   1.0481333650334470e+00   1.0396910360202845e+00   1.0360457197176853e+00   1.0355147823935835e+00   1.0142435175606974e+00   1.0181459415917673e+00   1.0046006942497867e+00   1.0038380217026215e+00   1.0161123840141428e+00   1.0084672274136510e+00   1.0329169656848054e+00   1.0240796105043750e+00   1.0387178431992452e+00   1.0328609911613125e+00   1.0307777575604429e+00   1.0292004557386512e+00   1.0156256542357898e+00   1.0179474221035612e+00   1.0034353409302130e+00   1.0071075430945395e+00   1.0028203991757083e+00   1.0038632963031757e+00   1.0086834096571962e+00   1.0126549259212421e+00   1.0066830136600295e+00   1.0073126753174471e+00   1.0110016290628070e+00   1.0084627104672945e+00   1.0168135030641281e+00   1.0112604915255792e+00   1.0199457881368623e+00   1.0137733238496038e+00   1.0154482625660957e+00   1.0119022427450757e+00   1.0057576129403487e+00   1.0057576129403485e+00   1.0009283218530729e+00   1.0007280862479067e+00   1.0074319846308537e+00   1.0019210823530242e+00   1.0174962256991542e+00   1.0087310650150390e+00   1.0206794433712487e+00   1.0129344207917454e+00   1.0165958928567496e+00   1.0114535575306460e+00   1.0097369869558128e+00   1.0072319844772295e+00   1.0037839377197564e+00   1.0032566420458227e+00   1.0004745374105108e+00   1.0007955865152882e+00   1.0004068624096485e+00   1.0000564496276350e+00   1.0037259520397255e+00   1.0011467373833278e+00   1.0099350688500488e+00   1.0042374003289924e+00   1.0170329498741526e+00   1.0087731032522749e+00   1.0209531348295691e+00   1.0125190928055072e+00   1.0169090000197871e+00   1.0118791489272589e+00   1.0068228060269335e+00   1.0063249799464180e+00   1.0008299443870994e+00   1.0009504163528462e+00   1.0063213733258756e+00   1.0015443507384543e+00   1.0161123840134245e+00   1.0084672274138873e+00   1.0196133453050149e+00   1.0135406263653803e+00   1.0162542432861084e+00   1.0132201637690532e+00   1.0104663551688062e+00   1.0102354798366167e+00   1.0073346179648568e+00   1.0081811968428163e+00   1.0094926134451383e+00   1.0096644366753909e+00   1.0112768636159273e+00   1.0126004941882789e+00   1.0081530701628936e+00   1.0087949526459781e+00   1.0076743140590079e+00   1.0079477003367914e+00   1.0079444324639022e+00   1.0085190307244871e+00   1.0069824843106421e+00   1.0082388112964651e+00   1.0034114919925841e+00   1.0050897264863710e+00   1.0007280862479067e+00   1.0009283218530729e+00   1.0002598429288803e+00   1.0002598429288803e+00   1.0005075091265871e+00   1.0008864200452796e+00   1.0031107017890306e+00   1.0028600840645916e+00   1.0044399281500203e+00   1.0048267699719782e+00   1.0032275622199558e+00   1.0039812041032747e+00   1.0014793153297452e+00   1.0019779646580074e+00   1.0004780010392000e+00   1.0005668036493010e+00   1.0001688180209276e+00   1.0001034814994727e+00   1.0001552224780685e+00   1.0001939889113558e+00   1.0005486089152991e+00   1.0006997959564650e+00   1.0017799506629050e+00   1.0019444072635921e+00   1.0035787627197967e+00   1.0038926357336815e+00   1.0043043891144483e+00   1.0051630875118041e+00   1.0023959546018655e+00   1.0036339895455089e+00   1.0006529862883797e+00   1.0006180889001055e+00   1.0002890541811149e+00   1.0002321031030432e+00   1.0008299443878259e+00   1.0009504163532896e+00   1.0046006942490293e+00   1.0038380217013723e+00   1.0075999379375649e+00   1.0074217190782004e+00   1.0079778592892947e+00   1.0081892312187306e+00   1.0077446216962156e+00   1.0076648450636809e+00   1.0087107422865857e+00   1.0078585310343282e+00   1.0131296073404950e+00   1.0110602925183128e+00   1.0084165382275372e+00   1.0075904828043725e+00   1.0079042814837385e+00   1.0064739678348644e+00   1.0112848544837900e+00   1.0112734115233191e+00   1.0155036413804199e+00   1.0190060437020227e+00   1.0162367529198582e+00   1.0233703611073097e+00   1.0103497416867260e+00   1.0192450298943834e+00   1.0019210823530242e+00   1.0074319846308537e+00   1.0008864200452796e+00   1.0005075091265871e+00   1.0074738191508765e+00   1.0074738191508765e+00   1.0144544486750702e+00   1.0198669068296198e+00   1.0155155471234296e+00   1.0252242782355849e+00   1.0111996139732728e+00   1.0209960721715743e+00   1.0056317243332487e+00   1.0125943305840559e+00   1.0015787954930118e+00   1.0048829589554888e+00   1.0000178750245237e+00   1.0005609843203225e+00   1.0009806190106594e+00   1.0005612572689582e+00   1.0042661159081447e+00   1.0047707322466506e+00   1.0093237580257512e+00   1.0122113941595248e+00   1.0144044147629052e+00   1.0204852326485574e+00   1.0159928753971577e+00   1.0251167677748056e+00   1.0107678694049498e+00   1.0209538204327577e+00   1.0023437567954929e+00   1.0086626589173167e+00   1.0006529862884512e+00   1.0006180889008431e+00   1.0068228060288160e+00   1.0063249799482075e+00   1.0142435175594882e+00   1.0181459415938341e+00   1.0162895233883615e+00   1.0236442636341563e+00   1.0128293555220425e+00   1.0197410589280795e+00   1.0087492555833446e+00   1.0121546004866602e+00   1.0062080435271543e+00   1.0058908382369909e+00   1.0116569893817431e+00   1.0070486468626401e+00   1.0015066615173440e+00   1.0001531591545199e+00   1.0066941671415863e+00   1.0021190053379367e+00   1.0206569588636452e+00   1.0178036946175790e+00   1.0346033479895071e+00   1.0365870035512990e+00   1.0388510249481597e+00   1.0460588290470338e+00   1.0278498330271855e+00   1.0384567666251172e+00   1.0087310650150387e+00   1.0174962256991542e+00   1.0028600840645912e+00   1.0031107017890304e+00   1.0198669068296198e+00   1.0144544486750700e+00   1.0411481862607430e+00   1.0411481862607430e+00   1.0470734887900663e+00   1.0567350770399453e+00   1.0375466315902981e+00   1.0523452328232372e+00   1.0215298660312984e+00   1.0350116475158453e+00   1.0073583137608626e+00   1.0154607855506232e+00   1.0004975634511941e+00   1.0026773641200626e+00   1.0031129555161111e+00   1.0016805712854886e+00   1.0141068518677794e+00   1.0126330031388360e+00   1.0294193416932031e+00   1.0309647765086793e+00   1.0424160043838604e+00   1.0484637135113495e+00   1.0450113403550021e+00   1.0553502854095098e+00   1.0320795176660451e+00   1.0447913975811294e+00   1.0107678694054234e+00   1.0209538204317741e+00   1.0023959546009351e+00   1.0036339895449891e+00   1.0169090000221586e+00   1.0118791489259589e+00   1.0360457197214670e+00   1.0355147823980264e+00   1.0403451235658516e+00   1.0482513215196869e+00   1.0293194631388485e+00   1.0412143566435352e+00   1.0139928071166722e+00   1.0226820961468670e+00   1.0010845789687901e+00   1.0039191913984071e+00   1.0056802493352617e+00   1.0000000000000000e+00   1.0000000000000000e+00   1.0000000000000000e+00   1.0063723062233874e+00   1.0000000000000000e+00   1.0319716928493756e+00   1.0255562708566519e+00   1.0528888023548402e+00   1.0512981221465425e+00   1.0558009906379509e+00   1.0599830810284125e+00   1.0380439669685648e+00   1.0464780147454678e+00   1.0129344207917454e+00   1.0206794433712498e+00   1.0048267699719773e+00   1.0044399281500191e+00   1.0252242782355840e+00   1.0155155471234283e+00   1.0567350770399453e+00   1.0470734887900657e+00   1.0736932866566107e+00   1.0736932866566105e+00   1.0666870466844594e+00   1.0776376327884003e+00   1.0428022538102009e+00   1.0584629690432430e+00   1.0166448668396681e+00   1.0289194350417767e+00   1.0022164657305395e+00   1.0064390180852314e+00   1.0066468121424110e+00   1.0038290198644102e+00   1.0269947834608186e+00   1.0220149425444374e+00   1.0524009140906765e+00   1.0499318496015075e+00   1.0693651672369193e+00   1.0715816534979961e+00   1.0673433643320269e+00   1.0743605641105840e+00   1.0450113403554184e+00   1.0553502854092440e+00   1.0159928753958358e+00   1.0251167677751578e+00   1.0043043891146832e+00   1.0051630875111921e+00   1.0209531348302461e+00   1.0125190928056589e+00   1.0481333650307687e+00   1.0396910360211429e+00   1.0602880379006980e+00   1.0609398071560510e+00   1.0481145118373574e+00   1.0587434397235378e+00   1.0226170504000320e+00   1.0350556816867245e+00   1.0000000000000000e+00   1.0042637850717453e+00   1.0000000000000000e+00   1.0000000000000000e+00   1.0000000000000000e+00   1.0000000000000000e+00   1.0077762005247362e+00   1.0000000000000000e+00   1.0394118781767165e+00   1.0304670148605310e+00   1.0592787131783390e+00   1.0543209470158714e+00   1.0565904917253528e+00   1.0571527582778442e+00   1.0353114266091663e+00   1.0402012537265826e+00   1.0114535575306471e+00   1.0165958928567509e+00   1.0039812041032734e+00   1.0032275622199553e+00   1.0209960721715725e+00   1.0111996139732711e+00   1.0523452328232348e+00   1.0375466315902946e+00   1.0776376327883979e+00   1.0666870466844551e+00   1.0806300753834488e+00   1.0806300753834468e+00   1.0588985411869363e+00   1.0694837037999412e+00   1.0259826517749078e+00   1.0389083620721322e+00   1.0046877082223005e+00   1.0101637218813908e+00   1.0103253029129284e+00   1.0058310899787746e+00   1.0372454174856687e+00   1.0283858828653176e+00   1.0660900016729615e+00   1.0589546467299722e+00   1.0791570906723074e+00   1.0764481023710584e+00   1.0693651672369926e+00   1.0715816534979803e+00   1.0424160043835453e+00   1.0484637135113601e+00   1.0144044147628819e+00   1.0204852326483274e+00   1.0035787627197768e+00   1.0038926357337634e+00   1.0170329498734232e+00   1.0087731032519500e+00   1.0436327530065381e+00   1.0310936299424722e+00   1.0625143187345918e+00   1.0544265638850163e+00   1.0575473075914927e+00   1.0606262478314434e+00   1.0310407545979801e+00   1.0421873814817917e+00   1.0000000000000000e+00   1.0076123727679556e+00   1.0000000000000000e+00   1.0000000000000000e+00   1.0000000000000000e+00   1.0027220177529177e+00   1.0090455804755982e+00   1.0000000000000000e+00   1.0369439167044001e+00   1.0272254461159624e+00   1.0492923600144826e+00   1.0419045815020811e+00   1.0423806215913685e+00   1.0395992493990400e+00   1.0242002530161463e+00   1.0254254954561339e+00   1.0072319844772299e+00   1.0097369869558126e+00   1.0019779646580065e+00   1.0014793153297452e+00   1.0125943305840539e+00   1.0056317243332473e+00   1.0350116475158411e+00   1.0215298660312950e+00   1.0584629690432392e+00   1.0428022538101973e+00   1.0694837037999385e+00   1.0588985411869336e+00   1.0584864423411189e+00   1.0584864423411182e+00   1.0292317126082733e+00   1.0372652151245143e+00   1.0056938984220725e+00   1.0104279478023817e+00   1.0109289570109530e+00   1.0050892310057564e+00   1.0375173693296222e+00   1.0258190823056534e+00   1.0610708466174461e+00   1.0501473894786635e+00   1.0660900016729025e+00   1.0589546467300228e+00   1.0524009140906188e+00   1.0499318496014085e+00   1.0294193416931459e+00   1.0309647765086245e+00   1.0093237580257979e+00   1.0122113941595534e+00   1.0017799506628720e+00   1.0019444072636099e+00   1.0099350688501203e+00   1.0042374003289711e+00   1.0287317924337369e+00   1.0174903853788129e+00   1.0465554329291349e+00   1.0344422292478377e+00   1.0499437485273027e+00   1.0441858464355913e+00   1.0323618964378820e+00   1.0365016752950174e+00   1.0003855091425589e+00   1.0109810481406982e+00   1.0000000000000000e+00   1.0000000000000000e+00   1.0024281558566428e+00   1.0169826107423976e+00   1.0067645629918505e+00   1.0011516807468697e+00   1.0226736836435799e+00   1.0142557504266057e+00   1.0272643933508390e+00   1.0193487316312764e+00   1.0214586418020335e+00   1.0169143440745316e+00   1.0114550431590945e+00   1.0101617058249239e+00   1.0032566420458224e+00   1.0037839377197566e+00   1.0005668036493005e+00   1.0004780010391998e+00   1.0048829589554880e+00