<?xml version="1.0"?>
<VTKFile type="UnstructuredGrid"  version="0.1"  >
<UnstructuredGrid>
<Piece  NumberOfPoints="961" NumberOfCells="1800">
<Points>
<DataArray  type="Float64"  NumberOfComponents="3"  format="ascii">0 0 0  0.03333333333333333 0 0  0.06666666666666667 0 0  0.1 0 0  0.1333333333333333 0 0  0.1666666666666667 0 0  0.2 0 0  0.2333333333333333 0 0  0.2666666666666667 0 0  0.3 0 0  0.3333333333333333 0 0  0.3666666666666666 0 0  0.4 0 0  0.4333333333333333 0 0  0.4666666666666666 0 0  0.5 0 0  0.5333333333333333 0 0  0.5666666666666667 0 0  0.6 0 0  0.6333333333333333 0 0  0.6666666666666666 0 0  0.7 0 0  0.7333333333333333 0 0  0.7666666666666668 0 0  0.8000000000000002 0 0  0.8333333333333334 0 0  0.8666666666666667 0 0  0.9 0 0  0.9333333333333333 0 0  0.9666666666666666 0 0  1 0 0  0 0.03333333333333333 0  0.03865883705170708 0.03865883705170706 0  0.07336449463043503 0.03705231851827898 0  0.1059465268699375 0.03407466648694654 0  0.1379159900549651 0.03127210492782614 0  0.1698343631079382 0.02903656685546694 0  0.2018666822593706 0.02751806364057543 0  0.2340147726695858 0.02681384512412237 0  0.2662049301448292 0.02699122650777259 0  0.2983404152683118 0.02808178511937446 0  0.330350430363579 0.03009558941008593 0  0.3622396688879168 0.03306107058206743 0  0.3941708080698297 0.03706375794049412 0  0.4266803434732956 0.04220165450760589 0  0.4611749301861726 0.04805163378025713 0  0.4996113937553023 0.05147874940667424 0  0.5384841426057813 0.04806141478381207 0  0.5732794047462755 0.04209406118736528 0  0.605901480107622 0.03692772244209396 0  0.6378909302310164 0.03293610187080893 0  0.6698203994314618 0.02999586551584324 0  0.7018596078510686 0.02801545322747461 0  0.7340126641580575 0.02696418473559452 0  0.7662072317753358 0.0268282810799404 0  0.798347697863672 0.02757109273813892 0  0.8303646404953884 0.02912140275590347 0  0.8622650582429531 0.03137939002372937 0  0.8942163581027328 0.03418904798128741 0  0.9267662717133752 0.0371369352273446 0  0.9613509881896101 0.03864901179733111 0  1 0.03333333333333333 0  0 0.06666666666666667 0  0.037052318518279 0.07336449463043498 0  0.07205624406694697 0.07205624406694693 0  0.1051907889109596 0.06760252516107908 0  0.1374404662560802 0.06266314070335491 0  0.169491648043791 0.05839153079614826 0  0.2016618563849369 0.05535134272746146 0  0.234008012423194 0.05388972449515074 0  0.2664208899514895 0.05421289083756965 0  0.2987323409027934 0.0563700899157115 0  0.3308402288727388 0.06027768696471794 0  0.3628054207078675 0.06578381086207449 0  0.3949356719145535 0.07266423893927497 0  0.4278864298991988 0.08039167558137258 0  0.4626307107094628 0.08746843353473473 0  0.4995974447322785 0.09072745520657693 0  0.5368200841689573 0.08762481876360913 0  0.5719245805593337 0.08046046775695645 0  0.6051151363756705 0.07261612111778232 0  0.6373965290432885 0.06567329252719847 0  0.6694666000285419 0.06015541881720485 0  0.7016490174755606 0.05627401534028776 0  0.7340041739008746 0.05416931842113065 0  0.7664251018832365 0.05390866208048812 0  0.7987455643756035 0.05542237096069113 0  0.8308656849634249 0.05848811165606905 0  0.8628497985423454 0.0627480448907759 0  0.8950117840703922 0.06762899610083585 0  0.9280184819142588 0.0719815180810926 0  0.962863064776026 0.07323372827115172 0  1 0.06666666666666667 0  0 0.1 0  0.03407466648694654 0.1059465268699376 0  0.06760252516107909 0.1051907889109596 0  0.100537786502031 0.100537786502031 0  0.1332576110673656 0.09440444288095315 0  0.1661750320571249 0.08847269781265617 0  0.1995367670538166 0.08391433404070256 0  0.2333329360107642 0.08158643778393382 0  0.267287021511012 0.08200780379036038 0  0.3010038096907889 0.08522233653116737 0  0.3342310487424345 0.09083826241279006 0  0.3669791589542675 0.09821570112000853 0  0.3995036501112823 0.106533629977707 0  0.4322296845640755 0.1146586576472473 0  0.4655868175462428 0.1209559820613221 0  0.4996578505255067 0.1234814903226912 0  0.5338502998239275 0.1211383021617233 0  0.5674612093404183 0.1148630361559881 0  0.6004503804974197 0.1066460803318185 0  0.633204365490182 0.09821590221816404 0  0.6661437667206147 0.09076257975887161 0  0.6995204711338596 0.08513007695648526 0  0.7333280457598943 0.0819564359574174 0  0.7672924500811756 0.0816019335919435 0  0.8010206330091429 0.08397164080318435 0  0.8342628130495807 0.08851569539567614 0  0.8670328347231636 0.09437671573296001 0  0.899591332458388 0.1004086675375974 0  0.9323710038963919 0.1049882159251975 0  0.9658109520183799 0.1057836418920283 0  1 0.1 0  0 0.1333333333333333 0  0.03127210492782614 0.1379159900549651 0  0.06266314070335494 0.1374404662560802 0  0.0944044428809532 0.1332576110673656 0  0.1268920253305536 0.1268920253305535 0  0.1605464182512701 0.1198917443537181 0  0.1956265375942756 0.1138801703998579 0  0.2319770393372364 0.1105058276230574 0  0.2688106337844057 0.1109653216433775 0  0.3049963154633838 0.1152622601793728 0  0.3398402462815694 0.1223037126970121 0  0.3732581240127967 0.1306746398617807 0  0.4055412070561786 0.1390680925090107 0  0.4371265530756119 0.1463209596747674 0  0.4684334617668541 0.1513498793176029 0  0.4997305008648871 0.1532329088924384 0  0.5310847400977698 0.15153851547081 0  0.5625376948146301 0.1466084447404213 0  0.5943225815763776 0.1393415199317572 0  0.6268399698073889 0.1308483306404744 0  0.660514848250605 0.1223468561366565 0  0.6956097259425735 0.1152132854864011 0  0.7319719784660976 0.1109143744574308 0  0.768816390080022 0.1105103203684053 0  0.8050137773917566 0.1138859183381059 0  0.8398723801868057 0.119811126834024 0  0.8733106041635185 0.1266893958305627 0  0.9056232842628054 0.1329671652723686 0  0.9372519551066258 0.1371502014541002 0  0.9686206099752297 0.1377349417544953 0  1 0.1333333333333333 0  0 0.1666666666666667 0  0.02903656685546695 0.1698343631079382 0  0.05839153079614829 0.1694916480437909 0  0.08847269781265622 0.1661750320571249 0  0.1198917443537182 0.1605464182512701 0  0.1534703998742377 0.1534703998742376 0  0.1900633324022732 0.146393826749557 0  0.2298519675705426 0.1417721263153232 0  0.2710667439619355 0.1421932413251343 0  0.3105357208697656 0.1475693640007809 0  0.346799411566716 0.1554307185685047 0  0.3801474640960367 0.1635963807084373 0  0.4114215061968888 0.1708448964915426 0  0.4414187743373805 0.1765218066499525 0  0.4707435086133061 0.1801902756321843 0  0.4998095001384084 0.1815272843441453 0  0.5289013678395941 0.1803863623422237 0  0.5582984787166669 0.1768663443384767 0  0.5884102013173692 0.1712585057675718 0  0.6198508446806488 0.1639807664447496 0  0.6534448645821155 0.1556837904186825 0  0.690049370723951 0.1476367690061927 0  0.729847767040962 0.1421577815911584 0  0.7710718054252939 0.14175078349569 0  0.8105504629416509 0.1462758008380692 0  0.8468256112076222 0.1531743887800964 0  0.880188873158224 0.1601276198060817 0  0.9114843045998468 0.1657371869459387 0  0.9415118883414817 0.1691343150336247 0  0.9708785972430684 0.1696353595029889 0  1 0.1666666666666667 0  0 0.2 0  0.02751806364057541 0.2018666822593705 0  0.05535134272746142 0.2016618563849368 0  0.08391433404070257 0.1995367670538165 0  0.1138801703998579 0.1956265375942755 0  0.146393826749557 0.1900633324022729 0  0.1833442877186745 0.1833442877186744 0  0.2267950359104022 0.1777285124009682 0  0.274143792852625 0.177971810310644 0  0.3170610558261993 0.1839042368328117 0  0.3537100606326585 0.1910572211483943 0  0.3860920095203162 0.1973571482310746 0  0.4159947463982216 0.2023594981629407 0  0.4445273266105038 0.2060115203684351 0  0.4723551844626884 0.208282119266169 0  0.499894673930756 0.2091184128854984 0  0.5274443381441548 0.2084857165512211 0  0.5553012493168609 0.2063957752088251 0  0.5838811909749269 0.2028818370161995 0  0.6138587957088401 0.1979523817165589 0  0.6463805531073702 0.1916181644768495 0  0.6833369448110765 0.1842583483646724 0  0.7267929270776304 0.178018231736117 0  0.7741469651314079 0.1776146430618689 0  0.8170693750805016 0.1829306248776045 0  0.853724199140493 0.189449537044841 0  0.8861140816531556 0.194986222601875 0  0.9160283591930214 0.198979366987209 0  0.9445776290375764 0.2012544356222244 0  0.9724289072611778 0.2016523021352598 0  1 0.2 0  0 0.2333333333333333 0  0.02681384512412234 0.2340147726695856 0  0.05388972449515069 0.2340080124231939 0  0.08158643778393378 0.2333329360107641 0  0.1105058276230574 0.2319770393372363 0  0.1417721263153231 0.2298519675705422 0  0.1777285124009682 0.226795035910402 0  0.2231824275478377 0.2231824275478375 0  0.277341287416429 0.2228335141853655 0  0.3223871671574036 0.2262525712888308 0  0.3582519999729739 0.2295382505334913 0  0.3894924951306191 0.2320451040789423 0  0.418399621945332 0.2339022597292438 0  0.4460898843949608 0.2352230259932332 0  0.4731649338244653 0.236053461500024 0  0.4999848829698599 0.2364007488281706 0  0.5268071367651161 0.2362597915496838 0  0.5538886092821046 0.2356252742881777 0  0.5815886370936918 0.2344828167562568 0  0.6105095675094436 0.2327815405345213 0  0.6417760651454122 0.2303949696968618 0  0.677731641971216 0.227119905526725 0  0.7231840222211972 0.2232775280324091 0  0.7773410708067677 0.2226589288003427 0  0.8223853567907009 0.225853034875458 0  0.8582492164812916 0.2289281945737165 0  0.8894896796280667 0.2311836099177605 0  0.918398066407469 0.232707549917113 0  0.9460913379193632 0.2335748981156157 0  0.9731717189199954 0.233792768224075 0  0.9999999999999999 0.2333333333333333 0  0 0.2666666666666667 0  0.02699122650777257 0.2662049301448292 0  0.05421289083756961 0.2664208899514894 0  0.08200780379036034 0.2672870215110117 0  0.1109653216433774 0.2688106337844055 0  0.1421932413251342 0.2710667439619353 0  0.177971810310644 0.2741437928526247 0  0.2228335141853656 0.2773412874164288 0  0.2767268493422986 0.2767268493422985 0  0.3219951624458492 0.2728869108334764 0  0.3578634567141732 0.269612763271652 0  0.3891149508859741 0.2672260065116584 0  0.4180820522304203 0.2655235614514262 0  0.445879969504
[...]
<CellData  Scalars="q"> 
<DataArray  type="Float64"  Name="q"  format="ascii">1.0083064163542486e+00   1.0083064163542488e+00   1.0000000000000000e+00   1.0000000000000000e+00   1.0000000000000000e+00   1.0000000000000000e+00   1.0000000000000000e+00   1.0000000000000000e+00   1.0017057972330858e+00   1.0000000000000000e+00   1.0127674690780857e+00   1.0038562313027979e+00   1.0202390397300238e+00   1.0143469883474485e+00   1.0200537448206062e+00   1.0184207470187285e+00   1.0120377489017631e+00   1.0137491111839363e+00   1.0002495140235299e+00   1.0026754374744233e+00   1.0000000000000000e+00   1.0000000000000000e+00   1.0000000000000000e+00   1.0000000000000000e+00   1.0062728980144702e+00   1.0000000000000000e+00   1.0348391386101703e+00   1.0013213124749283e+00   1.0624361162719449e+00   1.0249598139742144e+00   1.0503797504720815e+00   1.0359220536294991e+00   1.0167738725547255e+00   1.0145571887053448e+00   1.0000000000000000e+00   1.0000000000000000e+00   1.0000000000000000e+00   1.0000000000000000e+00   1.0000000000000000e+00   1.0000000000000000e+00   1.0089803273608937e+00   1.0000000000000000e+00   1.0185231997711710e+00   1.0115457083240471e+00   1.0209806324193371e+00   1.0180567464711188e+00   1.0153073889880209e+00   1.0159080638163724e+00   1.0047175766593412e+00   1.0066470202864837e+00   1.0000000000000000e+00   1.0000000000000000e+00   1.0000000000000000e+00   1.0000000000000000e+00   1.0000000000000000e+00   1.0000000000000000e+00   1.0125594483242253e+00   1.0000000000000000e+00   1.0020758826117360e+00   1.0139159349901403e+00   1.0000000000000000e+00   1.0000000000000000e+00   1.0004183883992344e+00   1.0004183883992344e+00   1.0000000000000000e+00   1.0102824685925260e+00   1.0000000000000000e+00   1.0086915039846898e+00   1.0000000000000000e+00   1.0064484569562349e+00   1.0053504569133247e+00   1.0081291331119946e+00   1.0129796636953361e+00   1.0121820803108055e+00   1.0153614159815527e+00   1.0148735898432264e+00   1.0112987697537181e+00   1.0141579452625302e+00   1.0040324068912381e+00   1.0116541482505950e+00   1.0000000000000000e+00   1.0111501604706961e+00   1.0000000000000000e+00   1.0148061313045109e+00   1.0024850178207270e+00   1.0195133955808109e+00   1.0015661442589929e+00   1.0168745940678974e+00   1.0011072681460105e+00   1.0028751780054519e+00   1.0117926610006125e+00   1.0033348835824571e+00   1.0135299634183033e+00   1.0205717042142051e+00   1.0022589115045877e+00   1.0239382045265586e+00   1.0000000000000000e+00   1.0145525203593670e+00   1.0000000000000000e+00   1.0074529840250335e+00   1.0023567506856184e+00   1.0069245268237248e+00   1.0110439121133947e+00   1.0107519859020313e+00   1.0152347130896682e+00   1.0143582933975899e+00   1.0128186099483738e+00   1.0146959221158871e+00   1.0062143987715837e+00   1.0123850223466773e+00   1.0000913092914010e+00   1.0104419254934387e+00   1.0000000000000000e+00   1.0105449757241056e+00   1.0000000000000000e+00   1.0100219973753028e+00   1.0006983455241718e+00   1.0029681049900629e+00   1.0125594483221940e+00   1.0000000000000000e+00   1.0000000000000000e+00   1.0000000000000000e+00   1.0102824685925262e+00   1.0000000000000000e+00   1.0382857444873821e+00   1.0382857444873821e+00   1.0407936955891590e+00   1.0526494898017258e+00   1.0317057635219979e+00   1.0475147127246349e+00   1.0220189345405988e+00   1.0333252903923238e+00   1.0164031372515048e+00   1.0208711165954776e+00   1.0159021383917846e+00   1.0162820042749463e+00   1.0205514425784972e+00   1.0217685477055736e+00   1.0301429179597505e+00   1.0358641978102088e+00   1.0429949806401824e+00   1.0537663670514794e+00   1.0538221725029917e+00   1.0675101328729419e+00   1.0528895216178407e+00   1.0671201999934010e+00   1.0325632731298033e+00   1.0457350697509500e+00   1.0055476341825862e+00   1.0138442576162949e+00   1.0107245168341872e+00   1.0052450770962391e+00   1.0459274397960332e+00   1.0383692273049725e+00   1.0633717598485124e+00   1.0706518137909464e+00   1.0548984832804973e+00   1.0745006972289328e+00   1.0382060604161838e+00   1.0593484087140428e+00   1.0242866246062146e+00   1.0387934520352506e+00   1.0168050791623486e+00   1.0227750910168052e+00   1.0155488782068562e+00   1.0162320409691148e+00   1.0192244874002452e+00   1.0199849196665238e+00   1.0264032813826676e+00   1.0311962467389011e+00   1.0344877790635958e+00   1.0439704641712186e+00   1.0374923969440475e+00   1.0497432107310805e+00   1.0271238581923570e+00   1.0393590164016238e+00   1.0000000000000000e+00   1.0100219973602569e+00   1.0000000000000000e+00   1.0000000000000000e+00   1.0000000000000000e+00   1.0000000000000000e+00   1.0086915039846898e+00   1.0000000000000000e+00   1.0526494898017258e+00   1.0407936955891588e+00   1.0734839765784492e+00   1.0734839765784492e+00   1.0677456083676224e+00   1.0815296643997281e+00   1.0451552397320860e+00   1.0622678024594545e+00   1.0240811121906346e+00   1.0342093928954954e+00   1.0200991820199483e+00   1.0203052664757783e+00   1.0367215795997651e+00   1.0329839904226070e+00   1.0639871150566795e+00   1.0633913569553932e+00   1.0870755361813138e+00   1.0914510623009153e+00   1.0930570958750412e+00   1.1008773334176460e+00   1.0748881844651674e+00   1.0851008584782644e+00   1.0378968996171474e+00   1.0495355667002926e+00   1.0070395109672845e+00   1.0137030020563964e+00   1.0130865324136278e+00   1.0053828731965093e+00   1.0519063312658472e+00   1.0350903785817445e+00   1.0881857641146717e+00   1.0779792099705463e+00   1.0989364789135676e+00   1.1046376327530307e+00   1.0829121922650344e+00   1.1017676622527921e+00   1.0529093541207950e+00   1.0739816033840022e+00   1.0268171926123812e+00   1.0394841537723289e+00   1.0190710057554973e+00   1.0206962626831211e+00   1.0317771082524256e+00   1.0287620783628870e+00   1.0536459959367204e+00   1.0535717919596601e+00   1.0689796922629617e+00   1.0741979006881908e+00   1.0649243878001435e+00   1.0744306799268100e+00   1.0374923969469823e+00   1.0497432107342883e+00   1.0000000000000000e+00   1.0105449757295766e+00   1.0000000000000000e+00   1.0000000000000000e+00   1.0000000000000000e+00   1.0017057972330858e+00   1.0064484569562346e+00   1.0000000000000000e+00   1.0475147127246349e+00   1.0317057635219979e+00   1.0815296643997283e+00   1.0677456083676229e+00   1.0898527454107194e+00   1.0898527454107199e+00   1.0679637240913573e+00   1.0805936912899443e+00   1.0341455948860636e+00   1.0466758917696255e+00   1.0243676542671571e+00   1.0233977319452576e+00   1.0503983281290834e+00   1.0406604264774848e+00   1.0861623140646866e+00   1.0785628059200532e+00   1.1051544767027450e+00   1.1020099613183434e+00   1.0973541814786865e+00   1.0979068671070729e+00   1.0673442418732433e+00   1.0715554463693486e+00   1.0297291704888329e+00   1.0364264281266158e+00   1.0046377996112410e+00   1.0086400735473964e+00   1.0077612045751447e+00   1.0022562260539287e+00   1.0384305026463232e+00   1.0218099360843886e+00   1.0794747740579578e+00   1.0582724794480542e+00   1.1086454953269587e+00   1.0941172044012344e+00   1.1090066597175336e+00   1.1101137364421336e+00   1.0796712881062738e+00   1.0946437711847641e+00   1.0390386253730939e+00   1.0540955478338481e+00   1.0229426881638071e+00   1.0242146590060370e+00   1.0430208037818982e+00   1.0350629383146388e+00   1.0723931682694632e+00   1.0668283948065960e+00   1.0840812566951215e+00   1.0841274920363044e+00   1.0689796922687209e+00   1.0741979006977895e+00   1.0344877790707674e+00   1.0439704641801995e+00   1.0000913092982378e+00   1.0104419254997716e+00   1.0000000000000000e+00   1.0000000000000000e+00   1.0038562313027977e+00   1.0127674690780855e+00   1.0081291331119941e+00   1.0053504569133245e+00   1.0333252903923236e+00   1.0220189345405986e+00   1.0622678024594561e+00   1.0451552397320869e+00   1.0805936912899450e+00   1.0679637240913589e+00   1.0723028263881260e+00   1.0723028263881262e+00   1.0357433255750259e+00   1.0434885071659461e+00   1.0204711210243529e+00   1.0157138727815060e+00   1.0491325958712139e+00   1.0328853931316977e+00   1.0803898306997246e+00   1.0659346957811842e+00   1.0867170762918841e+00   1.0766661478573443e+00   1.0699615275697114e+00   1.0641071957405579e+00   1.0425448712868195e+00   1.0412007827981706e+00   1.0168336236707496e+00   1.0188749346559494e+00   1.0019612462685992e+00   1.0039895961536263e+00   1.0030635415309341e+00   1.0003749588825965e+00   1.0202995393801089e+00   1.0093510744559571e+00   1.0485386134711818e+00   1.0293533318280597e+00   1.0778535410864198e+00   1.0553339528263281e+00   1.0942025250535155e+00   1.0780203196332978e+00   1.0828000881614157e+00   1.0816507704285983e+00   1.0409506783225095e+00   1.0497182306616442e+00   1.0189913524986340e+00   1.0165072002633817e+00   1.0422196167488735e+00   1.0282260349239625e+00   1.0692996983411911e+00   1.0578723152368465e+00   1.0723931682620269e+00   1.0668283948414121e+00   1.0536459959524529e+00   1.0535717919592358e+00   1.0264032813910207e+00   1.0311962467506370e+00   1.0062143987752796e+00   1.0123850223511224e+00   1.0047175766584351e+00   1.0066470202855824e+00   1.0143469883474487e+00   1.0202390397300243e+00   1.0121820803108053e+00   1.0129796636953363e+00   1.0208711165954774e+00   1.0164031372515046e+00   1.0342093928954963e+00   1.0240811121906348e+00   1.0466758917696262e+00   1.0341455948860647e+00   1.0434885071659457e+00   1.0357433255750255e+00   1.0191399443853073e+00   1.0191399443853071e+00   1.0051909620620316e+00   1.0030277621431247e+00   1.0250603927557738e+00   1.0080633342000587e+00   1.0450262102364209e+00   1.0286239358133513e+00   1.0445157054475751e+00   1.0331321807833156e+00   1.0314740283172137e+00   1.0244666756379055e+00   1.0169226555235564e+00   1.0136200785826261e+00   1.0062317692599358e+00   1.0056101001166828e+00   1.0007645332999013e+00   1.0013064155191007e+00   1.0006317102336086e+00   1.0000939516968790e+00   1.0061976066508467e+00   1.0019725653281983e+00   1.0177336511065020e+00   1.0079060998676621e+00   1.0334465412790488e+00   1.0182230731276176e+00   1.0478372345775264e+00   1.0304658546805752e+00   1.0463428026743058e+00   1.0348268336802138e+00   1.0217670464060908e+00   1.0203037114024456e+00   1.0047532148186000e+00   1.0035698026469899e+00   1.0222177040467726e+00   1.0069947566157964e+00   1.0422196166140463e+00   1.0282260352054831e+00   1.0430208038274436e+00   1.0350629381123366e+00   1.0317771082559768e+00   1.0287620783937779e+00   1.0192244874090666e+00   1.0199849196780471e+00   1.0128186099502761e+00   1.0146959221203087e+00   1.0153073889853710e+00   1.0159080638163180e+00   1.0184207470187292e+00   1.0200537448206066e+00   1.0148735898432266e+00   1.0153614159815527e+00   1.0162820042749461e+00   1.0159021383917843e+00   1.0203052664757779e+00   1.0200991820199479e+00   1.0233977319452578e+00   1.0243676542671571e+00   1.0157138727815056e+00   1.0204711210243531e+00   1.0030277621431245e+00   1.0051909620620312e+00   1.0012110883316092e+00   1.0012110883316094e+00   1.0037422943854004e+00   1.0032961328016736e+00   1.0150060121839730e+00   1.0134958095180178e+00   1.0155811738614127e+00   1.0177135935197117e+00   1.0091660354438865e+00   1.0115693867991769e+00   1.0036332104798968e+00   1.0050635334982716e+00   1.0010042821121570e+00   1.0013362815858817e+00   1.0003055581210822e+00   1.0002170006522841e+00   1.0003157007783088e+00   1.0003476561493285e+00   1.0013266546462980e+00   1.0013921369251291e+00   1.0047552542226132e+00   1.0044667261493727e+00   1.0109006174746562e+00   1.0104370805272378e+00   1.0167479808903144e+00   1.0171781796866077e+00   1.0126371381526216e+00   1.0165631023327255e+00   1.0027347186968318e+00   1.0042053872625558e+00   1.0012933847874166e+00   1.0011308247031909e+00   1.0047532150790857e+00   1.0035698026850941e+00   1.0189913523783183e+00   1.0165071999235722e+00   1.0229426880874506e+00   1.0242146593076895e+00   1.0190710057861665e+00   1.0206962627328879e+00   1.0155488782168853e+00   1.0162320409889187e+00   1.0152347130952240e+00   1.0143582934078081e+00   1.0209806324206994e+00   1.0180567464754098e+00   1.0137491111839365e+00   1.0120377489017631e+00   1.0141579452625300e+00   1.0112987697537177e+00   1.0217685477055729e+00   1.0205514425784967e+00   1.0329839904226070e+00   1.0367215795997653e+00   1.0406604264774850e+00   1.0503983281290838e+00   1.0328853931316977e+00   1.0491325958712141e+00   1.0080633342000587e+00   1.0250603927557735e+00   1.0032961328016736e+00   1.0037422943854004e+00   1.0230882173395430e+00   1.0230882173395430e+00   1.0404860437444841e+00   1.0530900338386870e+00   1.0362637177062095e+00   1.0563589186825113e+00   1.0225260928632509e+00   1.0406404531126774e+00   1.0102796207093070e+00   1.0223495881522153e+00   1.0026900860905936e+00   1.0081749449741810e+00   1.0000258714602834e+00   1.0009156729648454e+00   1.0016274840978008e+00   1.0009458366351049e+00   1.0073461096386518e+00   1.0079480591648764e+00   1.0172952534955593e+00   1.0212432217509986e+00   1.0299399567499015e+00   1.0385287674951063e+00   1.0394355088559428e+00   1.0532009331018655e+00   1.0335958003704053e+00   1.0525877979938190e+00   1.0092219095272636e+00   1.0281458772008822e+00   1.0027347186708409e+00   1.0042053875450121e+00   1.0217670466438087e+00   1.0203037116078559e+00   1.0409506783015812e+00   1.0497182315351368e+00   1.0390386256920889e+00   1.0540955484913501e+00   1.0268171926394207e+00   1.0394841537680934e+00   1.0168050791843062e+00   1.0227750910644886e+00   1.0110439121228980e+00   1.0107519859095291e+00   1.0185231997761770e+00   1.0115457083291235e+00   1.0026754374744229e+00   1.0002495140235297e+00   1.0116541482505943e+00   1.0040324068912378e+00   1.0358641978102081e+00   1.0301429179597494e+00   1.0633913569553941e+00   1.0639871150566798e+00   1.0785628059200532e+00   1.0861623140646868e+00   1.0659346957811842e+00   1.0803898306997233e+00   1.0286239358133513e+00   1.0450262102364207e+00   1.0134958095180182e+00   1.0150060121839728e+00   1.0530900338386868e+00   1.0404860437444845e+00   1.0934566365505511e+00   1.0934566365505509e+00   1.0921307648679410e+00   1.1108200439568989e+00   1.0669446809921088e+00   1.0937704227826854e+00   1.0364434255668558e+00   1.0596722450275919e+00   1.0122314001019257e+00   1.0258725053314979e+00   1.0010733737189901e+00   1.0048867615639894e+00   1.0054003929290984e+00   1.0033824928259596e+00   1.0235851013815478e+00   1.0213714386667347e+00   1.0504468268172791e+00   1.0524043956037821e+00   1.0771351699261233e+00   1.0849074204751927e+00   1.0903116718571808e+00   1.1034506892328289e+00   1.0749218574816783e+00   1.0930576438436614e+00   1.0335958007901607e+00   1.0525877978417870e+00   1.0126371379021042e+00   1.0165631023312416e+00   1.0463428035328846e+00   1.0348268335683928e+00   1.0828000901260597e+00   1.0816507724803293e+00   1.0796712886513131e+00   1.0946437711253414e+00   1.0529093542011814e+00   1.0739816034646859e+00   1.0242866246407343e+00   1.0387934520827529e+00   1.0023567506884459e+00   1.0069245268257854e+00   1.0089803273637812e+00   1.0000000000000000e+00   1.0000000000000000e+00   1.0000000000000000e+00   1.0111501604706956e+00   1.0000000000000000e+00   1.0537663670514779e+00   1.0429949806401810e+00   1.0914510623009166e+00   1.0870755361813134e+00   1.1020099613183421e+00   1.1051544767027455e+00   1.0766661478573418e+00   1.0867170762918814e+00   1.0331321807833163e+00   1.0445157054475751e+00   1.0177135935197124e+00   1.0155811738614133e+00   1.0563589186825124e+00   1.0362637177062120e+00   1.1108200439568985e+00   1.0921307648679413e+00   1.1338526764152292e+00   1.1338526764152295e+00   1.1164458228582215e+00   1.1363102908036145e+00   1.0735133977863112e+00   1.1012605735770353e+00   1.0292879549663916e+00   1.0509865824603524e+00   1.0054084378778121e+00   1.0133132210484515e+00   1.0129611603578610e+00   1.0091725162725751e+00   1.0467505805494155e+00   1.0397356336531576e+00   1.0897018217716772e+00   1.0863835966533495e+00   1.1212393932582279e+00   1.1236701179742166e+00   1.1236313618241676e+00   1.1316071043374238e+00   1.0903116719143759e+00   1.1034506892295841e+00   1.0394355086632838e+00   1.0532009331832262e+00   1.0167479810887972e+00   1.0171781796155683e+00   1.0478372351828247e+00   1.0304658548635859e+00   1.0942025250951501e+00   1.0780203203172514e+00   1.1090066591815835e+00   1.1101137358651956e+00   1.0829121922934006e+00   1.1017676624142152e+00   1.0382060604331964e+00   1.0593484087162319e+00   1.0000000000000000e+00   1.0074529840337021e+00   1.0000000000000000e+00   1.0000000000000000e+00   1.0000000000000000e+00   1.0000000000000000e+00   1.0148061313045103e+00   1.0000000000000000e+00   1.0675101328729399e+00   1.0538221725029904e+00   1.1008773334176456e+00   1.0930570958750385e+00   1.0979068671070726e+00   1.0973541814786865e+00   1.0641071957405557e+00   1.0699615275697099e+00   1.0244666756379059e+00   1.0314740283172124e+00   1.0115693867991780e+00   1.0091660354438872e+00   1.0406404531126801e+00   1.0225260928632529e+00   1.0937704227826868e+00   1.0669446809921106e+00   1.1363102908036156e+00   1.1164458228582232e+00   1.1418908823416114e+00   1.1418908823416118e+00   1.1061135362073491e+00   1.1256942848599745e+00   1.0504271432298977e+00   1.0748811256564164e+00   1.0132308412001498e+00   1.0243673888790767e+00   1.0234633438696483e+00   1.0170140489091473e+00   1.0693162449060527e+00   1.0570806672272404e+00   1.1165079513627867e+00   1.1077790196698807e+00   1.1371993838927050e+00   1.1339901504386720e+00   1.1212393932764830e+00   1.1236701179872206e+00   1.0771351699377727e+00   1.0849074205062195e+00   1.0299399567959788e+00   1.0385287675118842e+00   1.0109006175146409e+00   1.0104370805541147e+00   1.0334465412929068e+00   1.0182230731302861e+00   1.0778535411793770e+00   1.0553339529500918e+00   1.1086454954521812e+00   1.0941172043916352e+00   1.0989364790199598e+00   1.1046376328688530e+00   1.0548984832980495e+00   1.0745006972216644e+00   1.0000000000000000e+00   1.0145525203843249e+00   1.0000000000000000e+00   1.0000000000000000e+00   1.0000000000000000e+00   1.0062728980144706e+00   1.0195133955808102e+00   1.0024850178207274e+00   1.0671201999933988e+00   1.0528895216178393e+00   1.0851008584782615e+00   1.0748881844651645e+00   1.0715554463693477e+00   1.0673442418732415e+00   1.0412007827981686e+00   1.0425448712868173e+00   1.0136200785826259e+00   1.0169226555235551e+00   1.0050635334982720e+00   1.0036332104798975e+00   1.0223495881522169e+00   1.0102796207093081e+00   1.0596722450275933e+00   1.0364434255668571e+00   1.1012605735770371e+00   1.0735133977863125e+00   1.1256942848599751e+00   1.1061135362073502e+00   1.1151964098938114e+00   1.1151964098938114e+00   1.0665990332467667e+00   1.0840738662611158e+00   1.0197921526988849e+00   1.0310719371644952e+00   1.0302679203047265e+00   1.0200318837570692e+00   1.0781394395051875e+00   1.0610276000008718e+00   1.1142447855888040e+00   1.1006559878938418e+00   1.1165079513741087e+00   1.1077790196846495e+00   1.0897018217932344e+00   1.0863835966732838e+00   1.0504468268436926e+00   1.0524043956256883e+00   1.0172952535165372e+00   1.0212432217702623e+00   1.0047552542305911e+00   1.0044667261574292e+00   1.0177336511387480e+00   1.0079060998741274e+00   1.0485386135242101e+00   1.0293533318649426e+00   1.0794747740706818e+00   1.0582724794743681e+00   1.0881857641444030e+00   1.0779792100259888e+00   1.0633717598405437e+00   1.0706518138086145e+00   1.0022589115178786e+00   1.0239382045319678e+00   1.0000000000000000e+00   1.0000000000000000e+00   1.0013213124749281e+00   1.0348391386101696e+00   1.0168745940678972e+00   1.0015661442589929e+00   1.0457350697509480e+00   1.0325632731298020e+00   1.0495355667002897e+00   1.0378968996171447e+00   1.0364264281266142e+00   1.0297291704888307e+00   1.0188749346559476e+00   1.0168336236707487e+00   1.0056101001166819e+00   1.0062317692599347e+00   1.0013362815858822e+00   1.0010042821121572e+00   1.0081749449741819e+00