<?xml version="1.0"?>
<VTKFile type="UnstructuredGrid"  version="0.1"  >
<UnstructuredGrid>
<Piece  NumberOfPoints="961" NumberOfCells="1800">
<Points>
<DataArray  type="Float64"  NumberOfComponents="3"  format="ascii">0 0 0  0.03333333333333333 0 0  0.06666666666666667 0 0  0.1 0 0  0.1333333333333333 0 0  0.1666666666666667 0 0  0.2 0 0  0.2333333333333333 0 0  0.2666666666666667 0 0  0.3 0 0  0.3333333333333333 0 0  0.3666666666666666 0 0  0.4 0 0  0.4333333333333333 0 0  0.4666666666666667 0 0  0.5 0 0  0.5333333333333333 0 0  0.5666666666666667 0 0  0.6 0 0  0.6333333333333333 0 0  0.6666666666666666 0 0  0.7 0 0  0.7333333333333333 0 0  0.7666666666666667 0 0  0.8 0 0  0.8333333333333334 0 0  0.8666666666666667 0 0  0.9 0 0  0.9333333333333333 0 0  0.9666666666666668 0 0  1 0 0  0 0.03333333333333333 0  0.03963197777837296 0.03963197777837294 0  0.07409255299254344 0.03750465075681925 0  0.1063569072377068 0.03417241740330186 0  0.1381267727658649 0.03116789170624157 0  0.1699338005167804 0.02880931626654583 0  0.2019094774399926 0.0272168429378897 0  0.2340317577842354 0.02648115093169594 0  0.2662061806758314 0.02667147038379479 0  0.2983155388071134 0.02782228084215859 0  0.3302693895599634 0.0299495837818352 0  0.3620506336806941 0.03310339629169656 0  0.393792297158269 0.03743334302494508 0  0.4260061164434399 0.04320259976144053 0  0.4602518752452383 0.05030014071142292 0  0.4994635780433532 0.0550766528725869 0  0.5394124391400028 0.05040396635033668 0  0.5739917892087579 0.04311422783109227 0  0.6063054324052568 0.03729992590737447 0  0.6380987693832303 0.03297783555205485 0  0.6699184219350784 0.0298484284560951 0  0.7019017627911112 0.02775433223866871 0  0.7340294846917977 0.02664308495088362 0  0.7662087147475447 0.02649470303439048 0  0.7983235379559736 0.02726908377115424 0  0.8302851130890287 0.0288927227660493 0  0.8620791172923228 0.03127191191893684 0  0.893844555246141 0.0342782387793135 0  0.9261083548689183 0.03756076051101709 0  0.9604743866975435 0.03952561322514361 0  1 0.03333333333333333 0  0 0.06666666666666667 0  0.03750465075681929 0.07409255299254344 0  0.07253359877778957 0.07253359877778952 0  0.1055064465034266 0.06768654763301932 0  0.1375958523258479 0.06242840628090277 0  0.1695431490954544 0.05792288691308401 0  0.2016697650900573 0.0547260127276117 0  0.2340175544053831 0.05319172905442305 0  0.2664486024404816 0.05353916403802879 0  0.2987594593125058 0.05582163722332018 0  0.3308215439626821 0.05995422281121252 0  0.3626826737926501 0.06579894079099717 0  0.3946543402576154 0.07317862079205009 0  0.4274389296734659 0.08163921341824355 0  0.4621705122939647 0.08965736369290322 0  0.4995313137944433 0.09353446373318071 0  0.5372364792596261 0.08988795103730542 0  0.572384208573275 0.08175155474866841 0  0.6054219809669562 0.07314673422854819 0  0.6375474321688293 0.06569231556648196 0  0.6695158234695477 0.0598306387995609 0  0.7016558686283013 0.0557223755846563 0  0.7340134462525516 0.05349274687475875 0  0.7664532136962264 0.05320916714302209 0  0.798773881068809 0.05479570573143649 0  0.8308494442833566 0.05801584713512243 0  0.862731750598303 0.0625038185721877 0  0.8947395689622659 0.06769065791240207 0  0.9275891333737702 0.07241086659810947 0  0.962439239458201 0.07389164510256488 0  1 0.06666666666666667 0  0 0.1 0  0.03417241740330188 0.1063569072377067 0  0.06768654763301933 0.1055064465034265 0  0.1005314580675542 0.1005314580675542 0  0.1331558792788424 0.09402713672409449 0  0.1660240130524616 0.08775254718667019 0  0.1994092719174655 0.0829252909141837 0  0.2333002833367026 0.08045496720452362 0  0.2673788967603489 0.08090976698491223 0  0.3011825126482164 0.08433532560625764 0  0.3344232611313674 0.09030118620070732 0  0.3671129897463508 0.09813520167402313 0  0.3995326312160629 0.1070021061345837 0  0.4321541500147978 0.1157417109559401 0  0.4654756026747942 0.1226108938323722 0  0.4996282288450835 0.1254156111148194 0  0.5339261853789337 0.1228331222214198 0  0.5675315973227186 0.1159870470296219 0  0.600436118061738 0.1071403424408146 0  0.6330981824200984 0.09814620908507063 0  0.6659903536734559 0.09022571519739786 0  0.6993918348390713 0.08423777034462138 0  0.7332951118439479 0.08085333478040772 0  0.7673847906622067 0.08046917811467327 0  0.8012006693001515 0.08298157816938272 0  0.834457628048381 0.08778905998020936 0  0.8671713476504905 0.09398257111523806 0  0.899628496186497 0.1003715037785407 0  0.9323093420598774 0.1052604310114484 0  0.9657217612017454 0.1061554447382282 0  1 0.1 0  0 0.1333333333333333 0  0.03116789170624159 0.1381267727658649 0  0.06242840628090279 0.1375958523258478 0  0.09402713672409452 0.1331558792788423 0  0.1264018511264137 0.1264018511264137 0  0.1600270546891766 0.1189427175567072 0  0.1952178044792432 0.1124868162852958 0  0.2318436642593637 0.1088289576575671 0  0.2690333500189225 0.1093302116198852 0  0.305470786677424 0.1139849112897218 0  0.340400943288086 0.1215446099728099 0  0.3737719291955825 0.1304714942331732 0  0.405929770996983 0.1393971529466561 0  0.4373622813713285 0.1471195018979828 0  0.4685291783385512 0.1524985301436321 0  0.4997168653064212 0.1545265646638178 0  0.5309688654760872 0.1527113837452636 0  0.5622946456931786 0.1474414999936465 0  0.5939399201563408 0.1397025012418003 0  0.6263465769405437 0.1306660113416173 0  0.6599936797638112 0.1215931012640963 0  0.6952001197237676 0.1139278145249605 0  0.7318384138584394 0.1092696634992471 0  0.7690395302481002 0.1088346766503735 0  0.8054893581446697 0.1124928241553765 0  0.8404351224897609 0.1188495721256051 0  0.8738278680623154 0.1261721318768266 0  0.906017428841471 0.1328286523080814 0  0.9374961813995254 0.1372682493753563 0  0.9687280880661782 0.1379208826944188 0  1 0.1333333333333333 0  0 0.1666666666666667 0  0.02880931626654584 0.1699338005167803 0  0.05792288691308405 0.1695431490954543 0  0.08775254718667028 0.1660240130524616 0  0.1189427175567073 0.1600270546891766 0  0.1523956955323847 0.1523956955323847 0  0.1891226703918846 0.144608969001721 0  0.229488416338359 0.1393898966555036 0  0.2715689981193831 0.1398651926527141 0  0.3115476757655738 0.1458986908940968 0  0.3479027244188304 0.1545132591691917 0  0.381107589216055 0.163301508759614 0  0.4121458304450548 0.1710202863485901 0  0.4418875790724306 0.1770385939488245 0  0.4709676431178176 0.1809268073466569 0  0.499804641071848 0.1823476552489806 0  0.5286696641326708 0.1811410149907452 0  0.5578265524360153 0.1774144868359123 0  0.5876879755359457 0.1714719193342867 0  0.6189006570406592 0.1637221153760581 0  0.6523695736699509 0.1547876228170985 0  0.6891084594414776 0.1459585382050763 0  0.7294842265103737 0.1398087699126205 0  0.7715743367950668 0.1393788114835173 0  0.8115629508104869 0.1444892160550658 0  0.8479297919059009 0.1520702079611352 0  0.8811504277904346 0.1595648774349099 0  0.9122109399708096 0.1655423719078976 0  0.9419841528374434 0.1691505556918533 0  0.9711072772212987 0.1697148868995428 0  1 0.1666666666666667 0  0 0.2 0  0.02721684293788971 0.2019094774399925 0  0.0547260127276117 0.2016697650900573 0  0.08292529091418377 0.1994092719174655 0  0.1124868162852959 0.1952178044792432 0  0.1446089690017211 0.1891226703918846 0  0.1814410133072112 0.181441013307211 0  0.2258430529521929 0.1745609596410449 0  0.275315717494297 0.1748769969129184 0  0.3190040292757444 0.1820612870834244 0  0.3554975283333397 0.19018427786909 0  0.3874862377550947 0.1970644257922087 0  0.4169860035659694 0.2024165775499045 0  0.4451551169977282 0.206287387334784 0  0.4726582754762063 0.208686461422581 0  0.4998959651132542 0.2095709710273747 0  0.5271442990662031 0.2089060792509956 0  0.5546772381926519 0.2067026891187423 0  0.582893612307312 0.202984034272641 0  0.6124668996708582 0.1977173494158907 0  0.6445969320557945 0.1908067626215423 0  0.6814344902767897 0.182443506742177 0  0.7258413070117248 0.1748824158288803 0  0.7753188858743981 0.1744742912861263 0  0.8190118864192016 0.180988113127203 0  0.8555107837138767 0.1884370490358749 0  0.8875071757472976 0.1945106417862963 0  0.917018421787035 0.19879933066423 0  0.9452042942475596 0.2012261189124418 0  0.9727309162198601 0.2016764620357987 0  1 0.2 0  0 0.2333333333333333 0  0.02648115093169593 0.2340317577842352 0  0.05319172905442303 0.2340175544053829 0  0.08045496720452365 0.2333002833367025 0  0.1088289576575672 0.2318436642593636 0  0.1393898966555037 0.229488416338359 0  0.174560959641045 0.2258430529521926 0  0.2207220624848319 0.2207220624848317 0  0.279998948797347 0.2202123327086355 0  0.3255295636109685 0.2251316668333173 0  0.3606270876321719 0.2290939933221314 0  0.3911721377119659 0.2318911052402245 0  0.4195371431606481 0.2338943971711744 0  0.4467948234755829 0.2352986904384742 0  0.4735045644867888 0.2361771068476625 0  0.4999914826646777 0.2365449021417778 0  0.5264806089254439 0.2363985939411318 0  0.5531962808225718 0.2357321115134187 0  0.5804622510142403 0.2345252673460251 0  0.6088370956067463 0.2327053576995785 0  0.6393974170415587 0.230075418636142 0  0.6745666535280089 0.2262024873757242 0  0.7207248040292462 0.2208340601488466 0  0.7799981019215114 0.2200018937676123 0  0.8255257071939541 0.2246811140756456 0  0.8606211882606583 0.2284256631782651 0  0.8911653233043041 0.2309604697287511 0  0.9195308218732108 0.2326152093235195 0  0.946790832851096 0.2335467862959355 0  0.9735052969625951 0.2337912852490724 0  1 0.2333333333333333 0  0 0.2666666666666667 0  0.02667147038379478 0.2662061806758313 0  0.05353916403802878 0.2664486024404814 0  0.08090976698491226 0.2673788967603488 0  0.1093302116198853 0.2690333500189224 0  0.1398651926527143 0.2715689981193831 0  0.1748769969129186 0.2753157174942968 0  0.2202123327086357 0.2799989487973467 0  0.279171856886858 0.2791718568868577 0  0.3251348088557711 0.2738057458930112 0  0.3602178552366525 0.2699335204945415 0  0.3907665072426294 0.2673031870312753 0  0.4191934482494677 0.2654818397304942 0  0.4465662372194469 0.2642725725389469 0
[...]
<CellData  Scalars="q"> 
<DataArray  type="Float64"  Name="q"  format="ascii">1.0110805999445585e+00   1.0110805999445587e+00   1.0000000000000000e+00   1.0000000000000000e+00   1.0000000000000000e+00   1.0000000000000000e+00   1.0000000000000000e+00   1.0000000000000000e+00   1.0020000596816905e+00   1.0000000000000000e+00   1.0143982090710273e+00   1.0045099695147270e+00   1.0227527594545940e+00   1.0162946093002765e+00   1.0225108388515380e+00   1.0208459571152335e+00   1.0134970173984077e+00   1.0155658076985614e+00   1.0003027553918593e+00   1.0031319129440639e+00   1.0000000000000000e+00   1.0000000000000000e+00   1.0000000000000000e+00   1.0000000000000000e+00   1.0083958575782752e+00   1.0000000000000000e+00   1.0423562037250464e+00   1.0000000000000000e+00   1.0807079994239042e+00   1.0284301699761076e+00   1.0647852240162685e+00   1.0451159440294064e+00   1.0215178075486466e+00   1.0174199807223434e+00   1.0000000000000000e+00   1.0000000000000000e+00   1.0000000000000000e+00   1.0000000000000000e+00   1.0000000000000000e+00   1.0000000000000000e+00   1.0100457452703546e+00   1.0000000000000000e+00   1.0207752768934171e+00   1.0130700202381424e+00   1.0235865218825362e+00   1.0204295720394874e+00   1.0172680488261938e+00   1.0180593565237204e+00   1.0054152976697508e+00   1.0076834286127960e+00   1.0000000000000000e+00   1.0000000000000000e+00   1.0000000000000000e+00   1.0000000000000000e+00   1.0000000000000000e+00   1.0000000000000000e+00   1.0158559030706922e+00   1.0000000000000000e+00   1.0028975904654245e+00   1.0183293125222390e+00   1.0000000000000000e+00   1.0000000000000000e+00   1.0008045701580395e+00   1.0008045701580395e+00   1.0000000000000000e+00   1.0130595063988048e+00   1.0000000000000000e+00   1.0102190349695228e+00   1.0000000000000000e+00   1.0074388853279070e+00   1.0063544291321385e+00   1.0094654558519447e+00   1.0150593891658817e+00   1.0142547855902482e+00   1.0177380447017690e+00   1.0173880683365362e+00   1.0130698672470519e+00   1.0164897221933957e+00   1.0048313565093809e+00   1.0135053409934716e+00   1.0000000000000000e+00   1.0129402242397658e+00   1.0000000000000000e+00   1.0175210064188389e+00   1.0042631341473058e+00   1.0238987202966736e+00   1.0020190781686382e+00   1.0222713973391864e+00   1.0000000000000000e+00   1.0041533883339573e+00   1.0141649879673231e+00   1.0039641394329679e+00   1.0176168657193605e+00   1.0269718169511837e+00   1.0033666279498927e+00   1.0299017347956592e+00   1.0000000000000000e+00   1.0172769983277932e+00   1.0000000000000000e+00   1.0086900006831208e+00   1.0029128416949833e+00   1.0080841385079378e+00   1.0128177527456466e+00   1.0125877225554383e+00   1.0175967065274569e+00   1.0167907029182786e+00   1.0148308440640597e+00   1.0171258222491268e+00   1.0073134127513217e+00   1.0143453312241324e+00   1.0003913477887003e+00   1.0120437418410466e+00   1.0000000000000000e+00   1.0123480578615101e+00   1.0000000000000000e+00   1.0122493358680809e+00   1.0005453358312668e+00   1.0043142670988274e+00   1.0158559031699450e+00   1.0000000000000000e+00   1.0000000000000000e+00   1.0000000000000000e+00   1.0130595063988053e+00   1.0000000000000000e+00   1.0458205397775648e+00   1.0458205397775653e+00   1.0468715627194973e+00   1.0602631106108200e+00   1.0361127460282862e+00   1.0540274773320166e+00   1.0254690889493072e+00   1.0382498072844719e+00   1.0195496454726902e+00   1.0247495770782749e+00   1.0190934073351823e+00   1.0198674310884215e+00   1.0240859017025210e+00   1.0259280072846704e+00   1.0345418842201861e+00   1.0414110573230613e+00   1.0490466772531866e+00   1.0613442772069879e+00   1.0622023735731236e+00   1.0773021419878677e+00   1.0630054132282392e+00   1.0782572464177185e+00   1.0414365839117721e+00   1.0553336039833230e+00   1.0095293745498852e+00   1.0188253156635898e+00   1.0156333046890067e+00   1.0085473266634930e+00   1.0584446056343086e+00   1.0488888325726808e+00   1.0760618238129636e+00   1.0843954687669779e+00   1.0635100392654542e+00   1.0860337520032202e+00   1.0436697657674707e+00   1.0677673862585400e+00   1.0280653810847886e+00   1.0445596108829911e+00   1.0199865074954788e+00   1.0269264479603366e+00   1.0186809673218014e+00   1.0197980118943883e+00   1.0225665994773356e+00   1.0238687105281017e+00   1.0302182867382494e+00   1.0360106724776943e+00   1.0391292919795354e+00   1.0499613515722872e+00   1.0429708596243898e+00   1.0565280791608838e+00   1.0319585077818481e+00   1.0454098016736024e+00   1.0000000000000000e+00   1.0122493359340581e+00   1.0000000000000000e+00   1.0000000000000000e+00   1.0000000000000000e+00   1.0000000000000000e+00   1.0102190349695235e+00   1.0000000000000000e+00   1.0602631106108200e+00   1.0468715627194976e+00   1.0836099795960576e+00   1.0836099795960572e+00   1.0776346918626956e+00   1.0935296218028485e+00   1.0528200026961798e+00   1.0726004837818366e+00   1.0296163773427023e+00   1.0415453665634893e+00   1.0253094989105813e+00   1.0261469826373404e+00   1.0438282348576486e+00   1.0405449030139313e+00   1.0739667731679288e+00   1.0744099689666096e+00   1.0995348094589796e+00   1.1052164183274698e+00   1.1065616105455365e+00   1.1153393599156440e+00   1.0869412514643049e+00   1.0977180979518566e+00   1.0455132381335701e+00   1.0578949796245862e+00   1.0098608919014591e+00   1.0171688234674583e+00   1.0168079170857753e+00   1.0074765683155755e+00   1.0613363199835324e+00   1.0417262978934789e+00   1.1017196212209623e+00   1.0900712335535938e+00   1.1133584925136226e+00   1.1200942946644590e+00   1.0953005031792997e+00   1.1171462548410878e+00   1.0618517647684724e+00   1.0863302320801407e+00   1.0327898931368171e+00   1.0477235307695696e+00   1.0240793187792894e+00   1.0265793789696398e+00   1.0380324648395036e+00   1.0355468807418511e+00   1.0618988913746215e+00   1.0628702098572058e+00   1.0784469547307756e+00   1.0850482283687692e+00   1.0737163296201946e+00   1.0845276109447615e+00   1.0429708597029594e+00   1.0565280792395324e+00   1.0000000000000000e+00   1.0123480579579487e+00   1.0000000000000000e+00   1.0000000000000000e+00   1.0000000000000000e+00   1.0020000596816905e+00   1.0074388853279073e+00   1.0000000000000000e+00   1.0540274773320162e+00   1.0361127460282860e+00   1.0935296218028474e+00   1.0776346918626947e+00   1.1044484062093340e+00   1.1044484062093338e+00   1.0818880717161892e+00   1.0965169516040496e+00   1.0444899910434173e+00   1.0595751407771106e+00   1.0330385982633368e+00   1.0329619171944140e+00   1.0624845091533284e+00   1.0530705100813251e+00   1.1017700400475765e+00   1.0954435225958543e+00   1.1215049121889171e+00   1.1195521640408024e+00   1.1114002737155446e+00   1.1126523275070144e+00   1.0770529615261086e+00   1.0817014792097202e+00   1.0344323000682176e+00   1.0417051969864914e+00   1.0058951064951416e+00   1.0102131340353473e+00   1.0093577789267707e+00   1.0029033319979290e+00   1.0442093147678053e+00   1.0250552823660737e+00   1.0910330040668781e+00   1.0666038161849873e+00   1.1252065675672693e+00   1.1082955274741682e+00   1.1269893876097301e+00   1.1282301365680287e+00   1.0958492281828689e+00   1.1132906517367562e+00   1.0504137310019623e+00   1.0686068472002932e+00   1.0312424613305566e+00   1.0339587284118739e+00   1.0535683766880863e+00   1.0461697156747680e+00   1.0854302871448860e+00   1.0812834043729698e+00   1.0967976087122517e+00   1.0984070167843081e+00   1.0784469548064721e+00   1.0850482284755372e+00   1.0391292920925419e+00   1.0499613516835593e+00   1.0003913478557585e+00   1.0120437419174841e+00   1.0000000000000000e+00   1.0000000000000000e+00   1.0045099695147273e+00   1.0143982090710273e+00   1.0094654558519447e+00   1.0063544291321385e+00   1.0382498072844717e+00   1.0254690889493068e+00   1.0726004837818359e+00   1.0528200026961798e+00   1.0965169516040496e+00   1.0818880717161892e+00   1.0939568162581028e+00   1.0939568162581033e+00   1.0518693247753719e+00   1.0620824233172070e+00   1.0313672380540826e+00   1.0263579061378705e+00   1.0648353939041626e+00   1.0481793919823876e+00   1.0989101675545465e+00   1.0849232154742343e+00   1.1023423365362122e+00   1.0930546145869904e+00   1.0807239479080772e+00   1.0750382111592940e+00   1.0485035989328932e+00   1.0472507599829912e+00   1.0191529085841902e+00   1.0214402082181611e+00   1.0023228599205631e+00   1.0045524637282233e+00   1.0035276365479482e+00   1.0004469719673503e+00   1.0230348447892392e+00   1.0105816151641718e+00   1.0554997519257385e+00   1.0335411967480377e+00   1.0906441609553084e+00   1.0644015082088472e+00   1.1127583814250626e+00   1.0938265009761505e+00   1.1071064427657586e+00   1.1057557672620630e+00   1.0585897111350562e+00   1.0703022499289023e+00   1.0292129752656920e+00   1.0272785856154800e+00   1.0561231983233725e+00   1.0419267434771116e+00   1.0854060407844555e+00   1.0748460014881962e+00   1.0854302870856174e+00   1.0812834046930713e+00   1.0618988915424434e+00   1.0628702098689786e+00   1.0302182868294776e+00   1.0360106726026928e+00   1.0073134127738661e+00   1.0143453312594788e+00   1.0054152976275426e+00   1.0076834285816529e+00   1.0162946093002763e+00   1.0227527594545940e+00   1.0142547855902480e+00   1.0150593891658817e+00   1.0247495770782744e+00   1.0195496454726898e+00   1.0415453665634888e+00   1.0296163773427016e+00   1.0595751407771106e+00   1.0444899910434169e+00   1.0620824233172073e+00   1.0518693247753721e+00   1.0294200238306792e+00   1.0294200238306792e+00   1.0094425135894840e+00   1.0050555603325941e+00   1.0386469259255389e+00   1.0138491087330062e+00   1.0596185139503298e+00   1.0424188550325160e+00   1.0552210858251239e+00   1.0436185250024372e+00   1.0373917185546824e+00   1.0301720241389274e+00   1.0195648312775423e+00   1.0161487031025529e+00   1.0070902894945415e+00   1.0064765700129128e+00   1.0008663363626757e+00   1.0014886144334367e+00   1.0007070357615722e+00   1.0001098317264161e+00   1.0070736403562093e+00   1.0022804941868693e+00   1.0206994735524813e+00   1.0093649146460786e+00   1.0402679312888488e+00   1.0223217100813478e+00   1.0607630124759102e+00   1.0396598681406330e+00   1.0655597237417478e+00   1.0503181167982918e+00   1.0329735338381869e+00   1.0308574588782586e+00   1.0087167326789959e+00   1.0057798288043949e+00   1.0347276861177117e+00   1.0123007444237904e+00   1.0561231969564264e+00   1.0419267463503021e+00   1.0535683770785227e+00   1.0461697134065235e+00   1.0380324648942216e+00   1.0355468810759803e+00   1.0225665995638307e+00   1.0238687106486843e+00   1.0148308440681395e+00   1.0171258222866735e+00   1.0172680487789998e+00   1.0180593565048601e+00   1.0208459571152337e+00   1.0225108388515380e+00   1.0173880683365362e+00   1.0177380447017690e+00   1.0198674310884206e+00   1.0190934073351818e+00   1.0261469826373397e+00   1.0253094989105804e+00   1.0329619171944135e+00   1.0330385982633361e+00   1.0263579061378705e+00   1.0313672380540824e+00   1.0050555603325941e+00   1.0094425135894840e+00   1.0021430991461728e+00   1.0021430991461728e+00   1.0072669376511936e+00   1.0053499676862754e+00   1.0239516812993823e+00   1.0230107741832974e+00   1.0219981733349779e+00   1.0256155931043824e+00   1.0120769359581796e+00   1.0153966764491562e+00   1.0046058722206537e+00   1.0064915807252539e+00   1.0012277650390933e+00   1.0016768266476705e+00   1.0003606180413844e+00   1.0002664957537513e+00   1.0003846401347154e+00   1.0004087692372146e+00   1.0016743758663880e+00   1.0016788027320798e+00   1.0061480013327193e+00   1.0055829677991408e+00   1.0146419674386100e+00   1.0135988292529865e+00   1.0244439236123966e+00   1.0240052664152808e+00   1.0220145650225843e+00   1.0262077300999726e+00   1.0046032025922755e+00   1.0080256305389557e+00   1.0022609578926769e+00   1.0020270891219785e+00   1.0087167381046203e+00   1.0057798304171670e+00   1.0292129729749728e+00   1.0272785821000610e+00   1.0312424605616668e+00   1.0339587323417769e+00   1.0240793191248767e+00   1.0265793795493463e+00   1.0186809674341404e+00   1.0197980121417831e+00   1.0175967065804572e+00   1.0167907030303995e+00   1.0235865218780917e+00   1.0204295720724132e+00   1.0155658076985612e+00   1.0134970173984073e+00   1.0164897221933951e+00   1.0130698672470513e+00   1.0259280072846697e+00   1.0240859017025201e+00   1.0405449030139307e+00   1.0438282348576480e+00   1.0530705100813245e+00   1.0624845091533281e+00   1.0481793919823865e+00   1.0648353939041613e+00   1.0138491087330055e+00   1.0386469259255375e+00   1.0053499676862758e+00   1.0072669376511938e+00   1.0346016746833624e+00   1.0346016746833631e+00   1.0575894229336980e+00   1.0744261327323199e+00   1.0466635678139085e+00   1.0711218352593610e+00   1.0273371396919198e+00   1.0487151895126909e+00   1.0120973612035329e+00   1.0260476669954457e+00   1.0030991308512045e+00   1.0093522493091236e+00   1.0000287106403356e+00   1.0010394745680813e+00   1.0018596046063326e+00   1.0010848277741480e+00   1.0084824846820117e+00   1.0090795515417159e+00   1.0204243874850292e+00   1.0245802717020966e+00   1.0366545933179090e+00   1.0456809747178886e+00   1.0513731972100619e+00   1.0657087869538060e+00   1.0490635580247996e+00   1.0691281847967027e+00   1.0155105296811611e+00   1.0428740727975105e+00   1.0046032032694105e+00   1.0080256359903732e+00   1.0329735376696561e+00   1.0308574621683995e+00   1.0585897125390142e+00   1.0703022624103635e+00   1.0504137351864995e+00   1.0686068548994561e+00   1.0327898935028650e+00   1.0477235307830568e+00   1.0199865077756649e+00   1.0269264485334351e+00   1.0128177528588962e+00   1.0125877226623099e+00   1.0207752769280209e+00   1.0130700202899647e+00   1.0031319129440632e+00   1.0003027553918593e+00   1.0135053409934704e+00   1.0048313565093798e+00   1.0414110573230602e+00   1.0345418842201850e+00   1.0744099689666096e+00   1.0739667731679283e+00   1.0954435225958539e+00   1.1017700400475769e+00   1.0849232154742323e+00   1.0989101675545445e+00   1.0424188550325151e+00   1.0596185139503285e+00   1.0230107741832986e+00   1.0239516812993825e+00   1.0744261327323206e+00   1.0575894229336993e+00   1.1205355120838683e+00   1.1205355120838676e+00   1.1106816856913595e+00   1.1326402865150196e+00   1.0780000005486541e+00   1.1093887839280705e+00   1.0417797640377429e+00   1.0684729119973584e+00   1.0139543787439318e+00   1.0295478508240732e+00   1.0013168269299582e+00   1.0057404292305188e+00   1.0062443076162273e+00   1.0040794302315921e+00   1.0269352566120862e+00   1.0244970019839577e+00   1.0580297821937732e+00   1.0600146039002492e+00   1.0903959384756265e+00   1.0982607135170999e+00   1.1095305759859093e+00   1.1222506563098604e+00   1.0961429300030439e+00   1.1143424691347232e+00   1.0490635625581115e+00   1.0691281832375061e+00   1.0220145624977293e+00   1.0262077293462939e+00   1.0655597357001745e+00   1.0503181168719771e+00   1.1071064678791125e+00   1.1057557933901290e+00   1.0958492340905928e+00   1.1132906508061926e+00   1.0618517656938815e+00   1.0863302330990638e+00   1.0280653815040512e+00   1.0445596114342117e+00   1.0029128417619204e+00   1.0080841385768271e+00   1.0100457452852540e+00   1.0000000000000000e+00   1.0000000000000000e+00   1.0000000000000000e+00   1.0129402242397643e+00   1.0000000000000000e+00   1.0613442772069872e+00   1.0490466772531848e+00   1.1052164183274691e+00   1.0995348094589785e+00   1.1195521640408028e+00   1.1215049121889167e+00   1.0930546145869888e+00   1.1023423365362119e+00   1.0436185250024352e+00   1.0552210858251221e+00   1.0256155931043835e+00   1.0219981733349777e+00   1.0711218352593612e+00   1.0466635678139093e+00   1.1326402865150191e+00   1.1106816856913584e+00   1.1562848153780725e+00   1.1562848153780725e+00   1.1345291212075135e+00   1.1577385066680330e+00   1.0845324156390679e+00   1.1166700284054356e+00   1.0340152522561161e+00   1.0592166168692949e+00   1.0068640575317152e+00   1.0162623728698086e+00   1.0155194078966767e+00   1.0116016402275854e+00   1.0539316117211244e+00   1.0464604534220754e+00   1.1029997731658381e+00   1.0995298688488853e+00   1.1401024026530500e+00   1.1423432993866918e+00   1.1452094924119920e+00   1.1526869907629962e+00   1.1095305765533545e+00   1.1222506562896202e+00   1.0513731950684235e+00   1.0657087877562221e+00   1.0244439263551453e+00   1.0240052657086880e+00   1.0607630195872562e+00   1.0396598707590965e+00   1.1127583816207649e+00   1.0938265084150978e+00   1.1269893816215224e+00   1.1282301300867177e+00   1.0953005036779664e+00   1.1171462567549075e+00   1.0436697658605891e+00   1.0677673862482377e+00   1.0000000000000000e+00   1.0086900007967714e+00   1.0000000000000000e+00   1.0000000000000000e+00   1.0000000000000000e+00   1.0000000000000000e+00   1.0175210064188374e+00   1.0000000000000000e+00   1.0773021419878670e+00   1.0622023735731227e+00   1.1153393599156427e+00   1.1065616105455369e+00   1.1126523275070117e+00   1.1114002737155417e+00   1.0750382111592944e+00   1.0807239479080761e+00   1.0301720241389263e+00   1.0373917185546824e+00   1.0153966764491564e+00   1.0120769359581789e+00   1.0487151895126905e+00   1.0273371396919204e+00   1.1093887839280707e+00   1.0780000005486539e+00   1.1577385066680352e+00   1.1345291212075166e+00   1.1642263717217987e+00   1.1642263717218004e+00   1.1236802184579873e+00   1.1466397517871103e+00   1.0604776044101050e+00   1.0892554585340111e+00   1.0176024956585357e+00   1.0311434084013258e+00   1.0294940622743249e+00   1.0228485704273860e+00   1.0817908953764137e+00   1.0691940121789369e+00   1.1349735956066973e+00   1.1263831858328464e+00   1.1580417091636388e+00   1.1549057298367216e+00   1.1401024028200706e+00   1.1423432994843696e+00   1.0903959386067132e+00   1.0982607138157912e+00   1.0366545938307383e+00   1.0456809749165761e+00   1.0146419679161327e+00   1.0135988295668388e+00   1.0402679314582386e+00   1.0223217101579194e+00   1.0906441620214165e+00   1.0644015095457260e+00   1.1252065691018218e+00   1.1082955275389685e+00   1.1133584941664627e+00   1.1200942964804494e+00   1.0635100387412657e+00   1.0860337516345990e+00   1.0000000000000000e+00   1.0172769980518575e+00   1.0000000000000000e+00   1.0000000000000000e+00   1.0000000000000000e+00   1.0083958575782739e+00   1.0238987202966714e+00   1.0042631341473025e+00   1.0782572464177202e+00   1.0630054132282385e+00   1.0977180979518584e+00   1.0869412514643080e+00   1.0817014792097175e+00   1.0770529615261086e+00   1.0472507599829894e+00   1.0485035989328906e+00   1.0161487031025525e+00   1.0195648312775418e+00   1.0064915807252539e+00   1.0046058722206537e+00   1.0260476669954464e+00   1.0120973612035340e+00   1.0684729119973599e+00   1.0417797640377437e+00   1.1166700284054403e+00   1.0845324156390723e+00   1.1466397517871114e+00   1.1236802184579906e+00   1.1385596704713108e+00   1.1385596704713101e+00   1.0856954621038777e+00   1.1075648281579804e+00   1.0288805324973971e+00   1.0445649616079065e+00   1.0407063303578252e+00   1.0304072918533365e+00   1.0959101458033698e+00   1.0785129175357664e+00   1.1349559570155296e+00   1.1219329422795363e+00   1.1349735956654068e+00   1.1263831858562887e+00   1.1029997733243202e+00   1.0995298689711914e+00   1.0580297824445508e+00   1.0600146040791329e+00   1.0204243877099477e+00   1.0245802718933645e+00   1.0061480014460940e+00   1.0055829678966899e+00   1.0206994739313575e+00   1.0093649147392745e+00   1.0554997524566894e+00   1.0335411971382984e+00   1.0910330041847667e+00   1.0666038163078568e+00   1.1017196210069879e+00   1.0900712331432167e+00   1.0760618228040135e+00   1.0843954679610157e+00   1.0033666275250812e+00   1.0299017338453016e+00   1.0000000000000000e+00   1.0000000000000000e+00   1.0000000000000000e+00   1.0423562037250464e+00   1.0222713973391813e+00   1.0020190781686340e+00   1.0553336039833239e+00   1.0414365839117699e+00   1.0578949796245896e+00   1.0455132381335737e+00   1.0417051969864912e+00   1.0344323000682190e+00   1.0214402082181597e+00   1.0191529085841893e+00   1.0064765700129121e+00   1.0070902894945406e+00   1.0016768266476705e+00   1.0012277650390931e+00   1.0093522493091245e+00