<?xml version="1.0"?>
<VTKFile type="UnstructuredGrid"  version="0.1"  >
<UnstructuredGrid>
<Piece  NumberOfPoints="961" NumberOfCells="1800">
<Points>
<DataArray  type="Float64"  NumberOfComponents="3"  format="ascii">0 0 0  0.03333333333333333 0 0  0.06666666666666667 0 0  0.1 0 0  0.1333333333333333 0 0  0.1666666666666667 0 0  0.2 0 0  0.2333333333333333 0 0  0.2666666666666667 0 0  0.3 0 0  0.3333333333333333 0 0  0.3666666666666666 0 0  0.4 0 0  0.4333333333333333 0 0  0.4666666666666667 0 0  0.5 0 0  0.5333333333333333 0 0  0.5666666666666667 0 0  0.6 0 0  0.6333333333333333 0 0  0.6666666666666666 0 0  0.7 0 0  0.7333333333333333 0 0  0.7666666666666667 0 0  0.7999999999999999 0 0  0.8333333333333334 0 0  0.8666666666666668 0 0  0.9 0 0  0.9333333333333333 0 0  0.9666666666666667 0 0  1 0 0  0 0.03333333333333333 0  0.04050737260116409 0.04050737260116408 0  0.07465008944886464 0.03786447167296747 0  0.1066430307347764 0.03424595734181748 0  0.1382620506442198 0.03109031474838119 0  0.1699913043647005 0.02864197597992687 0  0.2019315579235687 0.02699555290330196 0  0.2340419901858794 0.02623684329418993 0  0.2662123150541085 0.0264371341504838 0  0.2983095494258378 0.02763328493426476 0  0.3302285073558667 0.02984570445610395 0  0.3619354944066386 0.03314173013513072 0  0.393537733909235 0.03772542098272387 0  0.4255108255324375 0.04401331395303641 0  0.4594782046874972 0.05226151344033256 0  0.4992679117239059 0.05863940405983276 0  0.5402360289349064 0.05251407166472352 0  0.5745325268767558 0.04396020342267703 0  0.6065850499607693 0.03760194449579344 0  0.6382312307373754 0.03301967328054485 0  0.6699746471367275 0.02974566498964809 0  0.701923300072281 0.02756521567940284 0  0.7340395998164446 0.02640791822740599 0  0.7662150801396873 0.0262490274332885 0  0.7983182238893395 0.02704553358543345 0  0.8302456901017842 0.02872141245710859 0  0.8619670912430397 0.03118690733967618 0  0.8935970955179839 0.0343354907728612 0  0.9256313570474636 0.03787404019504947 0  0.9597566022259548 0.04024339740754999 0  0.9999999999999999 0.03333333333333333 0  0 0.06666666666666667 0  0.03786447167296746 0.07465008944886464 0  0.07288017770867102 0.07288017770867102 0  0.1057153233930833 0.06773851707823887 0  0.1376830909202244 0.0622493008474651 0  0.1695579174253113 0.05757482025431529 0  0.2016607356668532 0.0542634504248371 0  0.2340211912929462 0.05267535670713121 0  0.266478505958758 0.05304136958168089 0  0.2988000511554034 0.05541815045533678 0  0.3308365442919795 0.0597186980265294 0  0.3626257232402199 0.06581577414112964 0  0.3944793685385093 0.07357231106660429 0  0.4271278029807542 0.08260502115328661 0  0.4618201192107231 0.09140489474262188 0  0.4994664390366402 0.09586213209761751 0  0.5375604692173128 0.09171624143596506 0  0.5727135039061697 0.08276475845278619 0  0.605622569154026 0.07356116957084689 0  0.6376306384731629 0.06571763416461557 0  0.6695286506010375 0.05959777701082442 0  0.7016459973591963 0.0553184817418836 0  0.7340169114412058 0.05299313286729462 0  0.766483502468052 0.05269032761454142 0  0.7988155541206609 0.05432906326529274 0  0.8308666867414397 0.0576601588758177 0  0.8626792563290505 0.06231045247257543 0  0.8945735441143808 0.06771511199486846 0  0.927296314821478 0.072703684961441 0  0.9621259595149959 0.07436864291285457 0  1 0.06666666666666667 0  0 0.1 0  0.03424595734181748 0.1066430307347765 0  0.06773851707823886 0.1057153233930833 0  0.1005060453620529 0.1005060453620529 0  0.133054719026856 0.09373498324986937 0  0.1658868181920184 0.08721166765895105 0  0.1992962326635062 0.08218516343665316 0  0.23327166100469 0.07960649596722981 0  0.2674612116779352 0.08008664518958651 0  0.3013421684090766 0.08367262775412948 0  0.334598649943587 0.08990043736610667 0  0.3672453677181335 0.09807270031176192 0  0.3995828891855193 0.1073471468760296 0  0.4321173051768226 0.1165513937512053 0  0.4653991075309928 0.1238690247723453 0  0.4996049251031531 0.126907526537942 0  0.533980989743696 0.1241292469949292 0  0.567571776551697 0.1168355700608997 0  0.6004039969297583 0.107511619761883 0  0.6329934239982385 0.09809768609652848 0  0.6658513457769992 0.08982976608226066 0  0.6992780097924639 0.08357388165466728 0  0.7332663600295669 0.08002681222569422 0  0.7674675296950324 0.07961784119007292 0  0.8013614285212644 0.0822363454050028 0  0.834635195623915 0.08723699786190893 0  0.8673077639616175 0.09367006005646082 0  0.8996859941701019 0.1003140054493153 0  0.9322848877246322 0.105426455645013 0  0.9656645090416182 0.106402904387186 0  1 0.1 0  0 0.1333333333333333 0  0.03109031474838119 0.1382620506442198 0  0.0622493008474651 0.1376830909202244 0  0.0937349832498694 0.1330547190268561 0  0.126017863995152 0.126017863995152 0  0.1596147566695365 0.1182193169774639 0  0.1948881105651734 0.1114247958181173 0  0.2317357088482903 0.1075416854929833 0  0.2692234522041788 0.1080745758211613 0  0.3058616097635603 0.1130094749717628 0  0.3408536532793737 0.1209639996543225 0  0.3741819095720909 0.1303059064420889 0  0.4062381774318274 0.1396259064517995 0  0.4375493761110806 0.1476986183553232 0  0.4686059576971582 0.1533444044817814 0  0.4997090191350716 0.1554869634561087 0  0.5308833328726982 0.1535788943712658 0  0.5621096796112569 0.1480514572596406 0  0.5936441088312748 0.1399608213048889 0  0.625960568719738 0.1305220691237675 0  0.659580399897791 0.1210221909104657 0  0.6948700576627479 0.1129499634104782 0  0.7317304766709114 0.1080070002451845 0  0.7692299752814969 0.1075461588980893 0  0.8058809264102907 0.1114253074082299 0  0.8408892190822927 0.1181090142380143 0  0.8742403033107427 0.1257596959351313 0  0.9063299394244042 0.1326922355717403 0  0.9376895472077978 0.1373207434074234 0  0.9688130925010037 0.1380329086428561 0  1 0.1333333333333333 0  0 0.1666666666666667 0  0.02864197597992689 0.1699913043647005 0  0.05757482025431532 0.1695579174253113 0  0.08721166765895107 0.1658868181920184 0  0.1182193169774639 0.1596147566695364 0  0.1515591787965105 0.1515591787965105 0  0.1883679872200699 0.1432067300220503 0  0.2291847440814951 0.1374793869588875 0  0.2720041890054886 0.1379981133946532 0  0.3123716927798473 0.144579902364455 0  0.3487714369523756 0.1537911633512876 0  0.381847944639523 0.1630558658519756 0  0.4126972754475921 0.1711280276004607 0  0.4422421543783302 0.1774021237660123 0  0.471137712642473 0.1814565435136977 0  0.4998044340884675 0.182942206042558 0  0.5285012748392623 0.1816865130407323 0  0.5574777070554927 0.1778053816989678 0  0.5871468939011684 0.1716135043580244 0  0.618177502800349 0.1635104412463637 0  0.6515334927180629 0.1540890579505339 0  0.6883541827927588 0.1446390010490161 0  0.7291808327875673 0.1379236812762225 0  0.7720096716410932 0.1374757124753043 0  0.8123869958033363 0.1430782476004429 0  0.8487985180158067 0.151201480174471 0  0.8818909846371332 0.159110780000803 0  0.9127630015192433 0.1653648039057262 0  0.9423398408053941 0.169133313022847 0  0.9712785874060863 0.1697543098004123 0  1 0.1666666666666667 0  0 0.2 0  0.02699555290330196 0.2019315579235687 0  0.05426345042483711 0.2016607356668532 0  0.08218516343665316 0.1992962326635061 0  0.1114247958181172 0.1948881105651733 0  0.1432067300220503 0.1883679872200698 0  0.1798634728290081 0.179863472829008 0  0.2249656159540321 0.1717644579042905 0  0.2764184609299773 0.1721546473663984 0  0.3206251765131173 0.1805218523021193 0  0.3569103475010419 0.189470173405343 0  0.3885561800849233 0.1968147901264974 0  0.4177340911266541 0.2024374234162077 0  0.4456250067376217 0.2064749135783419 0  0.4728856282657191 0.2089718988586308 0  0.4999007313390971 0.2098937813728602 0  0.5269269825493779 0.2092053137556641 0  0.5542182408157377 0.2069170928583748 0  0.5821567660453729 0.2030444688239361 0  0.6114078019032909 0.1975196939021616 0  0.6431970756079969 0.1901510752212434 0  0.6798585698686913 0.1809351044148301 0  0.7249645735864296 0.1721117558535413 0  0.7764214212711785 0.1717123435816034 0  0.8206319356534105 0.179368057620027 0  0.85692174895402 0.1876130022522624 0  0.8885746912128417 0.1941190728794901 0  0.9177636540504247 0.1986385711839939 0  0.9456709365172842 0.2011844457521172 0  0.9729544663366423 0.2016817760625307 0  1 0.2 0  0 0.2333333333333333 0  0.02623684329418994 0.2340419901858793 0  0.05267535670713124 0.2340211912929462 0  0.0796064959672298 0.23327166100469 0  0.1075416854929833 0.2317357088482902 0  0.1374793869588875 0.229184744081495 0  0.1717644579042906 0.2249656159540321 0  0.2178889307619421 0.217888930761942 0  0.2830604142161602 0.2171912426812728 0  0.3282942611637462 0.2240736405562902 0  0.362534277402744 0.2287061865404857 0  0.3924658734854569 0.231755453143353 0  0.4203947159700038 0.2338771170430222 0  0.4473208414968194 0.2353469035180794 0  0.4737583040002685 0.236262671182863 0  0.5000003769743567 0.2366467537321162 0  0.526244542120221 0.2364970813953829 0  0.5526874247750406 0.2358071122807853 0  0.5796204870090567 0.234551880452881 0  0.6075556180502645 0.2326393200834928 0  0.6374916583980837 0.2298041238978332 0  0.6717736405188421 0.2253524242480484 0  0.7178933241192825 0.2180207246668773 0  0.7830585987610441 0.2169413307423681 0  0.8282876319236773 0.2235785791699588 0  0.8625242833938797 0.227990328778703 0  0.8924538404730085 0.2307700248670761 0  0.920382158765465 0.2325324703899371 0  0.9473096724291654 0.2335164975845509 0  0.9737509725997022 0.2337849198864061 0  1 0.2333333333333333 0  0 0.2666666666666667 0  0.02643713415048382 0.2662123150541084 0  0.0530413695816809 0.2664785059587578 0  0.08008664518958654 0.2674612116779351 0  0.1080745758211613 0.2692234522041786 0  0.1379981133946532 0.2720041890054886 0  0.1721546473663984 0.2764184609299772 0  0.2171912426812729 0.2830604142161601 0  0.2819872886859861 0.2819872886859859 0  0.3279100355962626 0.2746573560544938 0  0.3621092182698221 0.2702060389452436 0  0.3920370856575774 0.2673701986217903 0  0.4200294908139715 0.2654559020649128 0  0.4470768634210682
[...]
<CellData  Scalars="q"> 
<DataArray  type="Float64"  Name="q"  format="ascii">1.0138200547994500e+00   1.0138200547994500e+00   1.0000000000000000e+00   1.0000000000000000e+00   1.0000000000000000e+00   1.0000000000000000e+00   1.0000000000000000e+00   1.0000000000000000e+00   1.0022666066637533e+00   1.0000000000000000e+00   1.0156941826341868e+00   1.0050756698970278e+00   1.0247327484314002e+00   1.0178611804461966e+00   1.0244425469528708e+00   1.0227816288929312e+00   1.0146482193961526e+00   1.0170251945060298e+00   1.0003710738408931e+00   1.0035408642275470e+00   1.0000000000000000e+00   1.0000000000000000e+00   1.0000000000000000e+00   1.0000000000000000e+00   1.0107720291490834e+00   1.0000000000000000e+00   1.0488555278801521e+00   1.0000000000000000e+00   1.0993379839528754e+00   1.0307677207472052e+00   1.0791265924397382e+00   1.0543221112301302e+00   1.0262765301996428e+00   1.0198353994486447e+00   1.0000000000000000e+00   1.0000000000000000e+00   1.0000000000000000e+00   1.0000000000000000e+00   1.0000000000000000e+00   1.0000000000000000e+00   1.0108760170199131e+00   1.0000000000000000e+00   1.0225397200716055e+00   1.0142880145166833e+00   1.0256437804028331e+00   1.0223230868389395e+00   1.0188370379550655e+00   1.0197971014368945e+00   1.0060170581062016e+00   1.0085711159151056e+00   1.0000000000000000e+00   1.0000000000000000e+00   1.0000000000000000e+00   1.0000000000000000e+00   1.0000000000000000e+00   1.0000000000000000e+00   1.0186581981057552e+00   1.0000000000000000e+00   1.0036837852181280e+00   1.0222928159733145e+00   1.0000000000000000e+00   1.0000000000000000e+00   1.0012617915920903e+00   1.0012617915920903e+00   1.0000000000000000e+00   1.0156495660543676e+00   1.0000000000000000e+00   1.0114846322082425e+00   1.0000000000000000e+00   1.0082896216739785e+00   1.0072315706981829e+00   1.0106079238450381e+00   1.0167849460502583e+00   1.0159978570653667e+00   1.0196969665442686e+00   1.0194905488624046e+00   1.0145508698421222e+00   1.0184448821244330e+00   1.0055575077204644e+00   1.0150721192257457e+00   1.0000000000000000e+00   1.0144528393965651e+00   1.0003411028209719e+00   1.0197915867597109e+00   1.0060450083448449e+00   1.0276244855197609e+00   1.0026897268116368e+00   1.0274608697360372e+00   1.0000000000000000e+00   1.0063250072410637e+00   1.0166067895195610e+00   1.0052392409108242e+00   1.0217830866634028e+00   1.0337123978795504e+00   1.0044755266070162e+00   1.0353485870402048e+00   1.0000000000000000e+00   1.0195560858270152e+00   1.0000000000000000e+00   1.0097587021361369e+00   1.0034237755436242e+00   1.0090847392857447e+00   1.0142903800285565e+00   1.0141346928555870e+00   1.0195436305147252e+00   1.0188248460602927e+00   1.0165102445629772e+00   1.0191614190002773e+00   1.0082811651621117e+00   1.0159966477655753e+00   1.0007337093912145e+00   1.0133857102986625e+00   1.0000000000000000e+00   1.0138292049204398e+00   1.0000000000000000e+00   1.0140881529274455e+00   1.0003929301138552e+00   1.0056616578548221e+00   1.0186581989853483e+00   1.0000000000000000e+00   1.0000000000000000e+00   1.0000000000000000e+00   1.0156495660543674e+00   1.0000000000000000e+00   1.0522334385649041e+00   1.0522334385649041e+00   1.0516539015236150e+00   1.0661345973590759e+00   1.0396117642225888e+00   1.0591260397516187e+00   1.0283237058682673e+00   1.0422306138929174e+00   1.0222538943296977e+00   1.0280574256704926e+00   1.0218494221060754e+00   1.0230117860173302e+00   1.0270745178037941e+00   1.0295075063982442e+00   1.0381408453573271e+00   1.0459941047502352e+00   1.0538840989286391e+00   1.0674169294635250e+00   1.0689264940690872e+00   1.0850811530727436e+00   1.0714371761364179e+00   1.0872823612315474e+00   1.0496214481991768e+00   1.0636012227510672e+00   1.0146407863655258e+00   1.0237225485382291e+00   1.0217379692296711e+00   1.0125456552841459e+00   1.0707126130526450e+00   1.0593152498916953e+00   1.0869339850028445e+00   1.0960108369244077e+00   1.0704381571522827e+00   1.0952393635353257e+00   1.0480527950451588e+00   1.0744402816164969e+00   1.0311962291929619e+00   1.0492440372439251e+00   1.0227194784191380e+00   1.0304646853340673e+00   1.0213845611137953e+00   1.0229250699152137e+00   1.0253904923623745e+00   1.0272124603133745e+00   1.0333224497710516e+00   1.0399738725699474e+00   1.0427770306699122e+00   1.0546985365219361e+00   1.0472361484826354e+00   1.0617785890853690e+00   1.0357936000798129e+00   1.0501351858416772e+00   1.0000000000000000e+00   1.0140881540327165e+00   1.0000000000000000e+00   1.0000000000000000e+00   1.0000000000000000e+00   1.0000000000000000e+00   1.0114846322082420e+00   1.0000000000000000e+00   1.0661345973590759e+00   1.0516539015236148e+00   1.0914647100867629e+00   1.0914647100867629e+00   1.0856069091637006e+00   1.1032275796797599e+00   1.0592754539985991e+00   1.0813212912250094e+00   1.0345690452583085e+00   1.0481003596269736e+00   1.0300371462762297e+00   1.0315973265544367e+00   1.0499643947077097e+00   1.0473097721059346e+00   1.0821746818534304e+00   1.0836988771732177e+00   1.1094848316513404e+00   1.1163797557418231e+00   1.1172845100440587e+00   1.1268442199493895e+00   1.0966867817127561e+00   1.1077808835116021e+00   1.0520563070573128e+00   1.0647464576830044e+00   1.0126341231761786e+00   1.0203084452687197e+00   1.0202372305078475e+00   1.0095148889343810e+00   1.0691198225578855e+00   1.0473813522384554e+00   1.1123892334500418e+00   1.0996760601777780e+00   1.1248043621640411e+00   1.1324249037850918e+00   1.1053662638542001e+00   1.1296723996153080e+00   1.0693875990488664e+00   1.0967804708789228e+00   1.0381088126878684e+00   1.0550462023773510e+00   1.0286252808878660e+00   1.0320522763044917e+00   1.0434370394846051e+00   1.0416318858811255e+00   1.0686416632291187e+00   1.0706840654187764e+00   1.0858875518766440e+00   1.0937501367000917e+00   1.0805084179828395e+00   1.0924004626205415e+00   1.0472361494271611e+00   1.0617785900542980e+00   1.0000000000000000e+00   1.0138292060729157e+00   1.0000000000000000e+00   1.0000000000000000e+00   1.0000000000000000e+00   1.0022666066637533e+00   1.0082896216739781e+00   1.0000000000000000e+00   1.0591260397516189e+00   1.0396117642225888e+00   1.1032275796797606e+00   1.0856069091637015e+00   1.1162365066569924e+00   1.1162365066569930e+00   1.0937774461672289e+00   1.1097280665164933e+00   1.0545412431806267e+00   1.0713997975670837e+00   1.0416822056899837e+00   1.0426709846750932e+00   1.0735644089130663e+00   1.0651725767412104e+00   1.1149901953882764e+00   1.1105273017127602e+00   1.1348580825710075e+00   1.1342233135738040e+00   1.1226136163398186e+00   1.1245899805868003e+00   1.0847942566324380e+00   1.0897861213214983e+00   1.0382655271164707e+00   1.0459361047524585e+00   1.0070207918322640e+00   1.0115326641201050e+00   1.0107377520408858e+00   1.0034800779020296e+00   1.0488846781747498e+00   1.0276757139897981e+00   1.1002513724487302e+00   1.0732416923390917e+00   1.1387093791688998e+00   1.1198031230784897e+00   1.1416198273070124e+00   1.1429312795782105e+00   1.1096668887680501e+00   1.1287865451447856e+00   1.0614170603931943e+00   1.0818674230515304e+00   1.0395350249200894e+00   1.0438589664789131e+00   1.0632571662143357e+00   1.0570634809482584e+00   1.0964268245424349e+00   1.0941928563794350e+00   1.1070801366787519e+00   1.1102798878913305e+00   1.0858875527090568e+00   1.0937501379125558e+00   1.0427770320218133e+00   1.0546985377902378e+00   1.0007337101118821e+00   1.0133857111421520e+00   1.0000000000000000e+00   1.0000000000000000e+00   1.0050756698970276e+00   1.0156941826341868e+00   1.0106079238450381e+00   1.0072315706981829e+00   1.0422306138929176e+00   1.0283237058682675e+00   1.0813212912250103e+00   1.0592754539985996e+00   1.1097280665164933e+00   1.0937774461672287e+00   1.1165555248605057e+00   1.1165555248605052e+00   1.0718489971220406e+00   1.0854282370966117e+00   1.0443915187564126e+00   1.0416676287530304e+00   1.0802260532167118e+00   1.0666579086095482e+00   1.1159075790605761e+00   1.1031980476732948e+00   1.1155525944748801e+00   1.1076825997956679e+00   1.0895173923305144e+00   1.0842006430911391e+00   1.0532727402469475e+00   1.0521601354419168e+00   1.0210069735796496e+00   1.0234920055807966e+00   1.0026256326771503e+00   1.0050063578519923e+00   1.0039020840321298e+00   1.0005054589532942e+00   1.0252063854758815e+00   1.0115579848801066e+00   1.0610777492044263e+00   1.0369243994316633e+00   1.1013800842423498e+00   1.0719695870685542e+00   1.1282534050584614e+00   1.1073917472849213e+00   1.1323391035788120e+00   1.1309034351278870e+00   1.0802108325269892e+00   1.0959391875285858e+00   1.0414013497473635e+00   1.0426845950929875e+00   1.0698161091653291e+00   1.0586210343092244e+00   1.1001959518049165e+00   1.0912183708500742e+00   1.0964268228000460e+00   1.0941928597766188e+00   1.0686416651697130e+00   1.0706840645180382e+00   1.0333224508085848e+00   1.0399738740772495e+00   1.0082811653457280e+00   1.0159966481427767e+00   1.0060170575863607e+00   1.0085711155266601e+00   1.0178611804461961e+00   1.0247327484313997e+00   1.0159978570653667e+00   1.0167849460502580e+00   1.0280574256704931e+00   1.0222538943296979e+00   1.0481003596269738e+00   1.0345690452583087e+00   1.0713997975670830e+00   1.0545412431806265e+00   1.0854282370966117e+00   1.0718489971220402e+00   1.0434127777574240e+00   1.0434127777574240e+00   1.0161825255284604e+00   1.0080179286212516e+00   1.0571259618145001e+00   1.0228622161152010e+00   1.0739723001974637e+00   1.0592459513875263e+00   1.0650579924368573e+00   1.0539505277995711e+00   1.0424764309864523e+00   1.0353088675765332e+00   1.0217551521162966e+00   1.0183248736110568e+00   1.0077885570408114e+00   1.0072007523207829e+00   1.0009503501801942e+00   1.0016409627249268e+00   1.0007677391272027e+00   1.0001263559958484e+00   1.0077874154008721e+00   1.0025417781940993e+00   1.0231961344320271e+00   1.0106276353984547e+00   1.0463174811875005e+00   1.0260045213951772e+00   1.0726611201225953e+00   1.0486682952954993e+00   1.0894923700025259e+00   1.0695332536387274e+00   1.0480415880798823e+00   1.0451082529272830e+00   1.0150514848348171e+00   1.0089433386193876e+00   1.0519131544502647e+00   1.0206936990344555e+00   1.0698160866472697e+00   1.0586210708268098e+00   1.0632571694220490e+00   1.0570634379186234e+00   1.0434370397451627e+00   1.0416318902775434e+00   1.0253904935659262e+00   1.0272124620338003e+00   1.0165102447560497e+00   1.0191614197612964e+00   1.0188370375875471e+00   1.0197971015312390e+00   1.0227816288929310e+00   1.0244425469528706e+00   1.0194905488624038e+00   1.0196969665442681e+00   1.0230117860173302e+00   1.0218494221060750e+00   1.0315973265544369e+00   1.0300371462762294e+00   1.0426709846750932e+00   1.0416822056899835e+00   1.0416676287530302e+00   1.0443915187564121e+00   1.0080179286212514e+00   1.0161825255284600e+00   1.0035399230570761e+00   1.0035399230570761e+00   1.0130820587120326e+00   1.0083124122061744e+00   1.0348892152494829e+00   1.0369616200687701e+00   1.0285801386075271e+00   1.0338303626807370e+00   1.0148142393641497e+00   1.0190668350924097e+00   1.0054952527460141e+00   1.0078077744608671e+00   1.0014311525054751e+00   1.0019888083288420e+00   1.0004116674178860e+00   1.0003142563276577e+00   1.0004499672169906e+00   1.0004645486137043e+00   1.0019946304791345e+00   1.0019357441223185e+00   1.0074368424253439e+00   1.0065963263103890e+00   1.0182532027639115e+00   1.0165604749657471e+00   1.0324442304314370e+00   1.0309738580066532e+00   1.0358605288503633e+00   1.0380089803495607e+00   1.0073617873561427e+00   1.0142549683709721e+00   1.0037005779465966e+00   1.0033805208372386e+00   1.0150516574743735e+00   1.0089434068570500e+00   1.0414012835911668e+00   1.0426845502918067e+00   1.0395350120800018e+00   1.0438590380870456e+00   1.0286252862939236e+00   1.0320522853253979e+00   1.0213845631297271e+00   1.0229250743646783e+00   1.0195436319231490e+00   1.0188248484303020e+00   1.0256437810463244e+00   1.0223230881750320e+00   1.0170251945060298e+00   1.0146482193961526e+00   1.0184448821244327e+00   1.0145508698421219e+00   1.0295075063982442e+00   1.0270745178037941e+00   1.0473097721059343e+00   1.0499643947077095e+00   1.0651725767412104e+00   1.0735644089130660e+00   1.0666579086095478e+00   1.0802260532167116e+00   1.0228622161152008e+00   1.0571259618144992e+00   1.0083124122061746e+00   1.0130820587120333e+00   1.0499609948665294e+00   1.0499609948665294e+00   1.0785432685469396e+00   1.1007902582475217e+00   1.0567787220769782e+00   1.0846558217171756e+00   1.0316188910123647e+00   1.0558331945305870e+00   1.0136581088117442e+00   1.0291601662129317e+00   1.0034413812760907e+00   1.0103144859807336e+00   1.0000315197991669e+00   1.0011381725643114e+00   1.0020518672562513e+00   1.0011980323151133e+00   1.0094317405840827e+00   1.0100053176429591e+00   1.0231091951280806e+00   1.0273556520122789e+00   1.0426719746863271e+00   1.0518243328903036e+00   1.0630477347801643e+00   1.0771724409128889e+00   1.0677588898152561e+00   1.0853202590626390e+00   1.0251703947459974e+00   1.0627203084964232e+00   1.0073618341425612e+00   1.0142551357797238e+00   1.0480417054067428e+00   1.0451083564633807e+00   1.0802108950626694e+00   1.0959394773124678e+00   1.0614171380933488e+00   1.0818675464370355e+00   1.0381088183380243e+00   1.0550462020813420e+00   1.0227194836005031e+00   1.0304646951835152e+00   1.0142903827646990e+00   1.0141346952752721e+00   1.0225397217833914e+00   1.0142880165785042e+00   1.0035408642275465e+00   1.0003710738408926e+00   1.0150721192257455e+00   1.0055575077204635e+00   1.0459941047502361e+00   1.0381408453573275e+00   1.0836988771732172e+00   1.0821746818534310e+00   1.1105273017127604e+00   1.1149901953882762e+00   1.1031980476732939e+00   1.1159075790605759e+00   1.0592459513875259e+00   1.0739723001974624e+00   1.0369616200687715e+00   1.0348892152494833e+00   1.1007902582475222e+00   1.0785432685469409e+00   1.1486460818413107e+00   1.1486460818413113e+00   1.1266114744119664e+00   1.1508986683501650e+00   1.0872589980255445e+00   1.1225654838632628e+00   1.0461268506945400e+00   1.0755975871247321e+00   1.0153447575237449e+00   1.0325075878517462e+00   1.0015224237828857e+00   1.0064495028112725e+00   1.0069373471259317e+00   1.0046726409260849e+00   1.0296496520553147e+00   1.0270371995115344e+00   1.0642363851556600e+00   1.0661828733202550e+00   1.1015618334991295e+00   1.1092652918632586e+00   1.1267006065547294e+00   1.1382206809374638e+00   1.1165287030384003e+00   1.1338739008727843e+00   1.0677589550282192e+00   1.0853202317583397e+00   1.0358605000321803e+00   1.0380089435854187e+00   1.0894926426960652e+00   1.0695332870779559e+00   1.1323395889855541e+00   1.1309039402062764e+00   1.1096669733071955e+00   1.1287865019331518e+00   1.0693876133555031e+00   1.0967804891131616e+00   1.0311962361457094e+00   1.0492440452977454e+00   1.0034237776047727e+00   1.0090847409732941e+00   1.0108760187792902e+00   1.0000000000000000e+00   1.0000000000000000e+00   1.0000000000000000e+00   1.0144528393965644e+00   1.0000000000000000e+00   1.0674169294635267e+00   1.0538840989286402e+00   1.1163797557418234e+00   1.1094848316513422e+00   1.1342233135738051e+00   1.1348580825710071e+00   1.1076825997956672e+00   1.1155525944748814e+00   1.0539505277995695e+00   1.0650579924368557e+00   1.0338303626807375e+00   1.0285801386075271e+00   1.0846558217171776e+00   1.0567787220769795e+00   1.1508986683501667e+00   1.1266114744119684e+00   1.1746403395039793e+00   1.1746403395039804e+00   1.1493541204368982e+00   1.1753713085597191e+00   1.0934634805276013e+00   1.1291569129803973e+00   1.0379316287686629e+00   1.0660419006005779e+00   1.0081593352355087e+00   1.0188587863257397e+00   1.0177056629574350e+00   1.0137731838843616e+00   1.0598016497699740e+00   1.0520639146000890e+00   1.1137709494884527e+00   1.1102280463347318e+00   1.1555551701372035e+00   1.1574993428072560e+00   1.1633678864152057e+00   1.1700792908724225e+00   1.1267006137114612e+00   1.1382206794706238e+00   1.0630476928652968e+00   1.0771724507751397e+00   1.0324442812496599e+00   1.0309738455496076e+00   1.0726612356343450e+00   1.0486683465700675e+00   1.1282533826435406e+00   1.1073918591608956e+00   1.1416197160526893e+00   1.1429311592859384e+00   1.1053662710592000e+00   1.1296724325078151e+00   1.0480527965293887e+00   1.0744402792040473e+00   1.0000000000000000e+00   1.0097587041679990e+00   1.0000000000000000e+00   1.0000000000000000e+00   1.0000000000000000e+00   1.0000000000000000e+00   1.0197915867597107e+00   1.0003411028209712e+00   1.0850811530727451e+00   1.0689264940690886e+00   1.1268442199493898e+00   1.1172845100440603e+00   1.1245899805867996e+00   1.1226136163398170e+00   1.0842006430911386e+00   1.0895173923305137e+00   1.0353088675765325e+00   1.0424764309864514e+00   1.0190668350924106e+00   1.0148142393641506e+00   1.0558331945305881e+00   1.0316188910123660e+00   1.1225654838632635e+00   1.0872589980255447e+00   1.1753713085597184e+00   1.1493541204368967e+00   1.1824877241130958e+00   1.1824877241130942e+00   1.1380435278884193e+00   1.1638134019433670e+00   1.0691596875064566e+00   1.1013851695021906e+00   1.0217348374232400e+00   1.0373097928012613e+00   1.0349798107837207e+00   1.0284327534643833e+00   1.0922851687753914e+00   1.0798320067450815e+00   1.1500959782147582e+00   1.1418886414523537e+00   1.1749561504896007e+00   1.1719677790631353e+00   1.1555551723593280e+00   1.1574993442506178e+00   1.1015618341980300e+00   1.1092652958926104e+00   1.0426719817438188e+00   1.0518243351782393e+00   1.0182532104187927e+00   1.0165604797718140e+00   1.0463174832575297e+00   1.0260045224561725e+00   1.1013801020989393e+00   1.0719696074801475e+00   1.1387094047054329e+00   1.1198031219167150e+00   1.1248043816530686e+00   1.1324249254840142e+00   1.0704381547840918e+00   1.0952393580187814e+00   1.0000000000000000e+00   1.0195560870059639e+00   1.0000000000000000e+00   1.0000000000000000e+00   1.0000000000000000e+00   1.0107720291490820e+00   1.0276244855197629e+00   1.0060450083448458e+00   1.0872823612315481e+00   1.0714371761364205e+00   1.1077808835116023e+00   1.0966867817127564e+00   1.0897861213214988e+00   1.0847942566324384e+00   1.0521601354419143e+00   1.0532727402469459e+00   1.0183248736110557e+00   1.0217551521162942e+00   1.0078077744608684e+00   1.0054952527460146e+00   1.0291601662129326e+00   1.0136581088117453e+00   1.0755975871247314e+00   1.0461268506945398e+00   1.1291569129803956e+00   1.0934634805276000e+00   1.1638134019433652e+00   1.1380435278884180e+00   1.1585670723314092e+00   1.1585670723314090e+00   1.1047373778743932e+00   1.1306262510804177e+00   1.0388532713229921e+00   1.0600072840215098e+00   1.0508901363490302e+00   1.0422747340542173e+00   1.1118576461662766e+00   1.0951164443587742e+00   1.1523791072730274e+00   1.1406174698808296e+00   1.1500959797459664e+00   1.1418886429168640e+00   1.1137709519411609e+00   1.1102280487995178e+00   1.0642363886741013e+00   1.0661828759560943e+00   1.0231091984071350e+00   1.0273556547851939e+00   1.0074368444389317e+00   1.0065963279091548e+00   1.0231961407468952e+00   1.0106276371283038e+00   1.0610777565443046e+00   1.0369244053759497e+00   1.1002513703416410e+00   1.0732416929698039e+00   1.1123892290815076e+00   1.0996760580325144e+00   1.0869339779065972e+00   1.0960108291444726e+00   1.0044755260757572e+00   1.0353485824002480e+00   1.0000000000000000e+00   1.0000000000000000e+00   1.0000000000000000e+00   1.0488555278801506e+00   1.0274608697360406e+00   1.0026897268116377e+00   1.0636012227510701e+00   1.0496214481991812e+00   1.0647464576830035e+00   1.0520563070573128e+00   1.0459361047524587e+00   1.0382655271164698e+00   1.0234920055807946e+00   1.0210069735796485e+00   1.0072007523207809e+00   1.0077885570408094e+00   1.0019888083288424e+00   1.0014311525054749e+00   1.0103144859807334e+00