<?xml version="1.0"?>
<VTKFile type="UnstructuredGrid"  version="0.1"  >
<UnstructuredGrid>
<Piece  NumberOfPoints="961" NumberOfCells="1800">
<Points>
<DataArray  type="Float64"  NumberOfComponents="3"  format="ascii">0 0 0  0.03333333333333333 0 0  0.06666666666666667 0 0  0.1 0 0  0.1333333333333333 0 0  0.1666666666666667 0 0  0.2 0 0  0.2333333333333334 0 0  0.2666666666666667 0 0  0.3 0 0  0.3333333333333333 0 0  0.3666666666666666 0 0  0.4 0 0  0.4333333333333333 0 0  0.4666666666666667 0 0  0.5 0 0  0.5333333333333333 0 0  0.5666666666666667 0 0  0.6 0 0  0.6333333333333333 0 0  0.6666666666666666 0 0  0.7 0 0  0.7333333333333333 0 0  0.7666666666666667 0 0  0.8 0 0  0.8333333333333334 0 0  0.8666666666666667 0 0  0.9 0 0  0.9333333333333332 0 0  0.9666666666666667 0 0  1 0 0  0 0.03333333333333333 0  0.04010057172184524 0.04010057172184524 0  0.07440236941672802 0.03770279513726302 0  0.1065192892768053 0.03421361767989312 0  0.1382050906586925 0.0311249639778758 0  0.1699680253160777 0.02871619414407008 0  0.2019230556511974 0.02709357961258237 0  0.2340377486304468 0.02634504987659602 0  0.2662088637149005 0.02654088484954127 0  0.2983104828990588 0.0277168583778968 0  0.3302439505685214 0.02989143893868233 0  0.3619829009525505 0.03312416185828888 0  0.3936462699414924 0.03759420607317778 0  0.4257275205945103 0.04364656338102223 0  0.4598289446990982 0.05135718999789961 0  0.4993692054128247 0.05693471779915391 0  0.5398551064185041 0.05153069033925493 0  0.5742930459115483 0.04357435252657444 0  0.606464457619355 0.03746501518511847 0  0.6381756145837154 0.03299992075084238 0  0.6699519680953477 0.02979056046995518 0  0.7019150472713118 0.02764867194932855 0  0.7340354079247554 0.02651201066200191 0  0.7662115158368434 0.02635795412504011 0  0.7983188337991303 0.02714482796835017 0  0.8302604307026314 0.02879785068038494 0  0.862012982741645 0.0312256467720731 0  0.893702131988075 0.03431198262694285 0  0.9258389233456779 0.03773717248219532 0  0.9600790277338256 0.03992097206526985 0  1 0.03333333333333333 0  0 0.06666666666666667 0  0.03770279513726304 0.07440236941672802 0  0.07272864450524263 0.07272864450524265 0  0.1056267031890771 0.06771738907066834 0  0.137648430643129 0.06232971361424463 0  0.1695546119005695 0.05772951950105605 0  0.2016667634412046 0.05446871588198973 0  0.2340200164505077 0.05290450980431373 0  0.2664639096706966 0.05326224181697767 0  0.2987791670314264 0.0555970443343409 0  0.3308258001307856 0.05982300605893762 0  0.3626459999620242 0.06580813275842184 0  0.3945516480121136 0.07339704823057189 0  0.4272615730366089 0.08217322018647737 0  0.4619750888554957 0.09061685568770692 0  0.4994977063590438 0.09480018198312724 0  0.5374161247514203 0.09088848677836796 0  0.5725702761020138 0.08230960599354077 0  0.605537889801131 0.07337533091394603 0  0.6375978698600736 0.06570534357202337 0  0.6695262398687682 0.05970032684787639 0  0.7016524033388312 0.05549724151530677 0  0.734015805314618 0.05321476275704679 0  0.7664687191407596 0.05292079372757865 0  0.7987941581933278 0.0545366331827252 0  0.8308548776324812 0.05781902108227108 0  0.8626973976885952 0.06239833180008759 0  0.8946414983625702 0.0677079140337797 0  0.9274211752019941 0.07257882472079213 0  0.9622628273864833 0.07416107664113268 0  1 0.06666666666666667 0  0 0.1 0  0.03421361767989314 0.1065192892768053 0  0.06771738907066838 0.1056267031890772 0  0.1005205081072484 0.1005205081072484 0  0.1331032941745512 0.09386650252146503 0  0.1659511960379186 0.08745272563866224 0  0.1993489261559709 0.08251457931334537 0  0.233284946302477 0.07998437416528678 0  0.2674226553065178 0.08045327158849752 0  0.3012674819524588 0.08396764136691065 0  0.3345161399828032 0.09007901990940433 0  0.3671817804520224 0.09810143908293442 0  0.3995561456545588 0.107195347972692 0  0.4321303400835275 0.1161928194286131 0  0.4654316195218295 0.1233088542843999 0  0.4996154619438091 0.1262401371734951 0  0.533957347911063 0.1235509581007662 0  0.5675561311384716 0.116458463616726 0  0.6004215534108766 0.1073470701154237 0  0.6330436315801248 0.09811928198066015 0  0.6659165254073733 0.09000547359686914 0  0.6993310361230447 0.08386896581638215 0  0.7332796861825626 0.08039487432002947 0  0.7674287703908829 0.07999731123738688 0  0.8012862332727764 0.08256874103046473 0  0.8345516788679247 0.08748403877813399 0  0.8672422937463673 0.09381185630222827 0  0.8996558491217219 0.1003441507667677 0  0.9322920858774537 0.1053585015634873 0  0.9656880173044381 0.1062978679843258 0  1 0.1 0  0 0.1333333333333333 0  0.03112496397787582 0.1382050906586925 0  0.06232971361424468 0.1376484306431291 0  0.0938665025214651 0.1331032941745513 0  0.1261911355264228 0.1261911355264227 0  0.1598014142139359 0.1185429383336938 0  0.1950380356827573 0.1118997352383564 0  0.2317848969421158 0.1081185543473796 0  0.2691355211951802 0.1086374507429585 0  0.3056826951756098 0.1134462306177116 0  0.3406475369618623 0.1212243816728255 0  0.3739957604736079 0.1303819685130502 0  0.4060981943846869 0.1395272398866223 0  0.4374642718545501 0.1474444249221661 0  0.468570785020184 0.1529710908735658 0  0.4997121335694104 0.1550619293848475 0  0.5309213896889731 0.1531954199364302 0  0.5621926297204808 0.1477827712185153 0  0.5937771868099596 0.1398481216674212 0  0.6261346658679638 0.1305875518569976 0  0.6597674256700513 0.1212773306878881 0  0.6950200937301707 0.1133871342154827 0  0.7317796265306452 0.108572909858527 0  0.7691418858210418 0.1081239908840448 0  0.8057016940831705 0.1119036757493019 0  0.8406825102283162 0.1184415312323392 0  0.8740530851435233 0.1259469146492168 0  0.9061881435534954 0.1327577061185195 0  0.9376016681071436 0.1373026022316156 0  0.9687743531781794 0.1379870172232001 0  1 0.1333333333333333 0  0 0.1666666666666667 0  0.0287161941440701 0.1699680253160777 0  0.05772951950105609 0.1695546119005696 0  0.0874527256386623 0.1659511960379186 0  0.1185429383336938 0.1598014142139359 0  0.1519355000807001 0.1519355000807001 0  0.1887104275822748 0.1438387975527223 0  0.2293245024177521 0.138345501322252 0  0.2718020848726398 0.1388448205910881 0  0.3119959598041814 0.1451756427871735 0  0.3483790380122152 0.1541174685730434 0  0.381515374300627 0.1631689815120282 0  0.4124503259647013 0.1710837962910222 0  0.4420835461007537 0.1772440976642537 0  0.4710614766447567 0.1812243737261373 0  0.4998039763447421 0.1826809212745987 0  0.5285755859678694 0.1814469957093154 0  0.557632472346078 0.1776345873549741 0  0.5873878125640315 0.1715533976427746 0  0.6185008234809839 0.1636073920025886 0  0.6519094688850862 0.1544036631649736 0  0.688696338374471 0.1452340676032468 0  0.7293204185169526 0.1387784929748511 0  0.7718075128963766 0.1383388438431241 0  0.8120113120388328 0.1437156164265 0  0.8484062187304279 0.151593780794028 0  0.881558468473804 0.1593174895132219 0  0.9125159610568778 0.1654483209897689 0  0.9421809788290939 0.16914512229173 0  0.9712021492796081 0.1697395692646826 0  1 0.1666666666666667 0  0 0.2 0  0.02709357961258237 0.2019230556511973 0  0.05446871588198977 0.2016667634412046 0  0.08251457931334544 0.199348926155971 0  0.1118997352383564 0.1950380356827573 0  0.1438387975527223 0.1887104275822748 0  0.1805849000238993 0.1805849000238993 0  0.2253806874975306 0.1730648252372617 0  0.2758949650281875 0.1734200333967778 0  0.319881808329552 0.1812280490021766 0  0.3562719585636397 0.1897963384291582 0  0.3880764723088884 0.1969303360785634 0  0.4174001024217522 0.2024314380342144 0  0.4454155973014768 0.2063943524286284 0  0.4727841533836665 0.2088475292103903 0  0.4998979943903971 0.2097526005455809 0  0.5270227346132369 0.2090745379323892 0  0.5544214931126918 0.2068240372690338 0  0.5824843573542771 0.2030200196368531 0  0.6118811335120761 0.1976108316918344 0  0.6438278367803557 0.1904493998788323 0  0.6805791035888995 0.1816256002479058 0  0.7253792556824695 0.1734004353739333 0  0.7758980528605459 0.1729960636811663 0  0.8198891819130123 0.1801108163940986 0  0.8562843827226251 0.1879886874145354 0  0.8880963239070881 0.1942983056887977 0  0.9174312588279787 0.1987137666190951 0  0.9454633667558542 0.2012058417542482 0  0.9728551720073971 0.2016811661793667 0  1 0.2 0  0 0.2333333333333334 0  0.02634504987659601 0.2340377486304466 0  0.05290450980431372 0.2340200164505076 0  0.07998437416528678 0.233284946302477 0  0.1081185543473796 0.2317848969421158 0  0.138345501322252 0.2293245024177522 0  0.1730648252372617 0.2253806874975306 0  0.2193105123541211 0.2193105123541211 0  0.2815265667504282 0.2187050538718827 0  0.3270091193238989 0.2245763732719517 0  0.3616690360463047 0.2288866889820327 0  0.3918853524906619 0.2318187690375972 0  0.420012030715669 0.2338864798463285 0  0.447086669374733 0.2353266986738792 0  0.4736452073740207 0.2362256421857527 0  0.4999957699284688 0.2366023447400392 0  0.526348483435005 0.2364540778773604 0  0.5529126907191179 0.2357745002014399 0  0.5799948985450185 0.2345408429869188 0  0.608129491804953 0.2326701047181175 0  0.6383553132450137 0.2299296896999708 0  0.6730721916702443 0.225755246134628 0  0.7193140323499726 0.2194322905778988 0  0.781525270068979 0.2184747131003581 0  0.8270039305171192 0.2241019469749564 0  0.8616611551990235 0.2281924870586516 0  0.8918760089723506 0.2308581141366777 0  0.920002688746777 0.2325712295870423 0  0.9470792062742647 0.2335312808498922 0  0.9736420458768648 0.233788484160269 0  1 0.2333333333333333 0  0 0.2666666666666667 0  0.02654088484954125 0.2662088637149004 0  0.05326224181697763 0.2664639096706964 0  0.08045327158849748 0.2674226553065177 0  0.1086374507429585 0.2691355211951802 0  0.1388448205910882 0.27180208487264 0  0.1734200333967779 0.2758949650281876 0  0.2187050538718827 0.2815265667504283 0  0.2805746134969129 0.280574613496913 0  0.3266190383425544 0.2742537643361813 0  0.3612512439313204 0.2700798750096751 0  0.391467192757852 0.2673389417662982 0  0.4196566447573958 0.2654666155877892 0  0.4468497114962449 0.2642303310564234 
[...]
<CellData  Scalars="q"> 
<DataArray  type="Float64"  Name="q"  format="ascii">1.0125195646672960e+00   1.0125195646672960e+00   1.0000000000000000e+00   1.0000000000000000e+00   1.0000000000000000e+00   1.0000000000000000e+00   1.0000000000000000e+00   1.0000000000000000e+00   1.0021412014161730e+00   1.0000000000000000e+00   1.0151086828738416e+00   1.0048136079589636e+00   1.0238408472574911e+00   1.0171512620313659e+00   1.0235726520766761e+00   1.0219064127415722e+00   1.0141286481260696e+00   1.0163636082269383e+00   1.0003355610846298e+00   1.0033489153775810e+00   1.0000000000000000e+00   1.0000000000000000e+00   1.0000000000000000e+00   1.0000000000000000e+00   1.0096035616147225e+00   1.0000000000000000e+00   1.0458681806334831e+00   1.0000000000000000e+00   1.0903652537593649e+00   1.0297737278676824e+00   1.0722730761651300e+00   1.0499000511802263e+00   1.0239969479482489e+00   1.0187345749456176e+00   1.0000000000000000e+00   1.0000000000000000e+00   1.0000000000000000e+00   1.0000000000000000e+00   1.0000000000000000e+00   1.0000000000000000e+00   1.0105025786730808e+00   1.0000000000000000e+00   1.0217459027390403e+00   1.0137367446067345e+00   1.0247162848369673e+00   1.0214668898198458e+00   1.0181265151565950e+00   1.0190083768575637e+00   1.0057379518007634e+00   1.0081608569482086e+00   1.0000000000000000e+00   1.0000000000000000e+00   1.0000000000000000e+00   1.0000000000000000e+00   1.0000000000000000e+00   1.0000000000000000e+00   1.0173901887427714e+00   1.0000000000000000e+00   1.0033177930887403e+00   1.0204751273178225e+00   1.0000000000000000e+00   1.0000000000000000e+00   1.0010357092660982e+00   1.0010357092660980e+00   1.0000000000000000e+00   1.0144365513733131e+00   1.0000000000000000e+00   1.0109088976696996e+00   1.0000000000000000e+00   1.0078966098300313e+00   1.0068247530523156e+00   1.0100810832395233e+00   1.0159966439880659e+00   1.0151986713507584e+00   1.0188035864377756e+00   1.0185283313568894e+00   1.0138721653243163e+00   1.0175489490993512e+00   1.0052166612477385e+00   1.0143517124928929e+00   1.0000000000000000e+00   1.0137581259328881e+00   1.0000088069591575e+00   1.0187552969177993e+00   1.0052017095234782e+00   1.0259229202546039e+00   1.0023434345251427e+00   1.0250242497793651e+00   1.0000000000000000e+00   1.0051625194996183e+00   1.0154241103560018e+00   1.0045377118452281e+00   1.0197809110837599e+00   1.0304463823685617e+00   1.0039472714628273e+00   1.0328100420563477e+00   1.0000000000000000e+00   1.0185170411729818e+00   1.0000000000000000e+00   1.0092648500805266e+00   1.0031833224594573e+00   1.0086220445376290e+00   1.0136172730749540e+00   1.0134248143278572e+00   1.0186556905929034e+00   1.0178937959153380e+00   1.0157412668393930e+00   1.0182289736917771e+00   1.0078309381333816e+00   1.0152385011956435e+00   1.0005643736433192e+00   1.0127705477205489e+00   1.0000000000000000e+00   1.0131564852783603e+00   1.0000000000000000e+00   1.0132567949272515e+00   1.0004633026143352e+00   1.0050258184627834e+00   1.0173901891289423e+00   1.0000000000000000e+00   1.0000000000000000e+00   1.0000000000000000e+00   1.0144365513733129e+00   1.0000000000000000e+00   1.0492991689208939e+00   1.0492991689208937e+00   1.0495096891710876e+00   1.0635182930220191e+00   1.0380355363843770e+00   1.0568402880352934e+00   1.0270217392246681e+00   1.0404284830872683e+00   1.0210076114295037e+00   1.0265373054729694e+00   1.0205777588959037e+00   1.0215557859466096e+00   1.0257027319113217e+00   1.0278573936264013e+00   1.0365035855971414e+00   1.0439040997647224e+00   1.0517001324318072e+00   1.0646727627311745e+00   1.0658940155564582e+00   1.0815792330753928e+00   1.0676022109940262e+00   1.0832051198227723e+00   1.0458097511241440e+00   1.0598066326879068e+00   1.0120604780103597e+00   1.0214093169254390e+00   1.0186644241471461e+00   1.0105546326455501e+00   1.0648792561235580e+00   1.0543411222205694e+00   1.0819509827310330e+00   1.0907095948352030e+00   1.0673112442905239e+00   1.0910939685364394e+00   1.0460726596182208e+00   1.0714383116681503e+00   1.0297675724982160e+00   1.0471201325057615e+00   1.0214599350645670e+00   1.0288386541129184e+00   1.0201372757393807e+00   1.0214770061913110e+00   1.0240946736714251e+00   1.0256709495236018e+00   1.0319124065600431e+00   1.0381684009331613e+00   1.0411381966655928e+00   1.0525659850337510e+00   1.0453304419628140e+00   1.0594334543061243e+00   1.0340769702218380e+00   1.0480244809127632e+00   1.0000000000000000e+00   1.0132567952938611e+00   1.0000000000000000e+00   1.0000000000000000e+00   1.0000000000000000e+00   1.0000000000000000e+00   1.0109088976696994e+00   1.0000000000000000e+00   1.0635182930220193e+00   1.0495096891710878e+00   1.0879528177342164e+00   1.0879528177342170e+00   1.0819961548305352e+00   1.0988316744296398e+00   1.0563155543254681e+00   1.0773148380487994e+00   1.0322633946293509e+00   1.0450445907958961e+00   1.0278302087505620e+00   1.0290326600724864e+00   1.0471347579654047e+00   1.0441621142512776e+00   1.0784380989207205e+00   1.0794428972129291e+00   1.1049953608727625e+00   1.1113196285894205e+00   1.1124587786356988e+00   1.1216611452885843e+00   1.0922850011812510e+00   1.1032480594883594e+00   1.0490545488631720e+00   1.0616413758203316e+00   1.0113216867695893e+00   1.0188493572621340e+00   1.0186411302738700e+00   1.0085533655003236e+00   1.0655900560575122e+00   1.0447920010419802e+00   1.1076057945647602e+00   1.0953615723649355e+00   1.1196532669558763e+00   1.1268676656136118e+00   1.1007984026551987e+00   1.1239840255132698e+00   1.0659321715980024e+00   1.0919771391475332e+00   1.0356357052316643e+00   1.0516379333958465e+00   1.0265031484865157e+00   1.0294791358358417e+00   1.0409444635335343e+00   1.0387991834102510e+00   1.0655776598897653e+00   1.0671070329635379e+00   1.0825456062373187e+00   1.0898178120054300e+00   1.0774760968010524e+00   1.0888736221977910e+00   1.0453304422613636e+00   1.0594334546093584e+00   1.0000000000000000e+00   1.0131564856291599e+00   1.0000000000000000e+00   1.0000000000000000e+00   1.0000000000000000e+00   1.0021412014161730e+00   1.0078966098300306e+00   1.0000000000000000e+00   1.0568402880352936e+00   1.0380355363843767e+00   1.0988316744296411e+00   1.0819961548305363e+00   1.1109097323311370e+00   1.1109097323311379e+00   1.0883374834808859e+00   1.1037438782078415e+00   1.0497691384194165e+00   1.0659005905506107e+00   1.0375492744138399e+00   1.0380269743935382e+00   1.0683720279777902e+00   1.0594169028596061e+00   1.1089290980758331e+00   1.1035058580856698e+00   1.1287938551277814e+00   1.1275192714852320e+00   1.1175564697471094e+00   1.1191828271256414e+00   1.0813059682674631e+00   1.0861419369561254e+00   1.0365294471080719e+00   1.0440270070098321e+00   1.0065001758446361e+00   1.0109312472675334e+00   1.0101043850376286e+00   1.0032142979283973e+00   1.0467704868331136e+00   1.0264919503171723e+00   1.0960989349215986e+00   1.0702518256714344e+00   1.1325777369986498e+00   1.1145854220735059e+00   1.1349952966483567e+00   1.1362810959223322e+00   1.1033431538275316e+00   1.1217638754136967e+00   1.0561971293456831e+00   1.0757029279107275e+00   1.0355677669167114e+00   1.0391209362974074e+00   1.0587147970555759e+00   1.0518756437620791e+00   1.0913909211886959e+00   1.0881843443312593e+00   1.1024226193951405e+00   1.1048627576046177e+00   1.0825456065181507e+00   1.0898178124011517e+00   1.0411381970863902e+00   1.0525659854433509e+00   1.0005643738633825e+00   1.0127705479889029e+00   1.0000000000000000e+00   1.0000000000000000e+00   1.0048136079589631e+00   1.0151086828738416e+00   1.0100810832395226e+00   1.0068247530523149e+00   1.0404284830872681e+00   1.0270217392246677e+00   1.0773148380488005e+00   1.0563155543254685e+00   1.1037438782078426e+00   1.0883374834808872e+00   1.1055616553527285e+00   1.1055616553527288e+00   1.0616836822001789e+00   1.0734784040772427e+00   1.0378605593716639e+00   1.0335942842379489e+00   1.0729159694128010e+00   1.0573405687912070e+00   1.1079323974523121e+00   1.0945463019790032e+00   1.1094997295958509e+00   1.1008754715933593e+00   1.0855231504768641e+00   1.0800099611804561e+00   1.0511192020594753e+00   1.0499339774607928e+00   1.0201703948678453e+00   1.0225653591504960e+00   1.0024879192383682e+00   1.0048011769116989e+00   1.0037334348511813e+00   1.0004793599076851e+00   1.0242286556893039e+00   1.0111183710365381e+00   1.0585598853920204e+00   1.0353924738443758e+00   1.0964592393879249e+00   1.0685100266026382e+00   1.1212175726884268e+00   1.1011725737896099e+00   1.1200807580824856e+00   1.1186684275004377e+00   1.0692359715590682e+00   1.0828399305623413e+00   1.0352950658741407e+00   1.0345682809671355e+00   1.0633056930601394e+00   1.0501885108600932e+00   1.0932551401709343e+00   1.0834637217076648e+00   1.0913909209440451e+00   1.0881843454601616e+00   1.0655776605159790e+00   1.0671070329832866e+00   1.0319124068998047e+00   1.0381684014122077e+00   1.0078309382071391e+00   1.0152385013305307e+00   1.0057379516502631e+00   1.0081608568457028e+00   1.0171512620313656e+00   1.0238408472574909e+00   1.0151986713507575e+00   1.0159966439880652e+00   1.0265373054729687e+00   1.0210076114295030e+00   1.0450445907958961e+00   1.0322633946293505e+00   1.0659005905506114e+00   1.0497691384194168e+00   1.0734784040772425e+00   1.0616836822001792e+00   1.0361266881834661e+00   1.0361266881834661e+00   1.0125476567733194e+00   1.0064523731027311e+00   1.0475059801831759e+00   1.0180192620145962e+00   1.0671495759861407e+00   1.0507441011331433e+00   1.0604452862097975e+00   1.0490242620436669e+00   1.0401348676666158e+00   1.0329149038534260e+00   1.0207553847595281e+00   1.0173214101539945e+00   1.0074712079609625e+00   1.0068689833296149e+00   1.0009119261574559e+00   1.0015709471409888e+00   1.0007401089412937e+00   1.0001181592944002e+00   1.0074629512713560e+00   1.0024213424983719e+00   1.0220523704545397e+00   1.0100441184604996e+00   1.0435035867816451e+00   1.0242879207876989e+00   1.0671176393362238e+00   1.0443807296388528e+00   1.0772651700949931e+00   1.0597532572531436e+00   1.0402166983792838e+00   1.0377004819107223e+00   1.0116288758878831e+00   1.0072786003678931e+00   1.0429472704507405e+00   1.0161700689006778e+00   1.0633056878706024e+00   1.0501885210000506e+00   1.0587147983467191e+00   1.0518756345243887e+00   1.0409444637691387e+00   1.0387991847126439e+00   1.0240946740322885e+00   1.0256709500304995e+00   1.0157412668939139e+00   1.0182289738923533e+00   1.0181265150368857e+00   1.0190083768560831e+00   1.0219064127415725e+00   1.0235726520766764e+00   1.0185283313568889e+00   1.0188035864377758e+00   1.0215557859466091e+00   1.0205777588959035e+00   1.0290326600724859e+00   1.0278302087505615e+00   1.0380269743935384e+00   1.0375492744138395e+00   1.0335942842379495e+00   1.0378605593716643e+00   1.0064523731027313e+00   1.0125476567733196e+00   1.0028020593583542e+00   1.0028020593583540e+00   1.0099208099660486e+00   1.0067507742811164e+00   1.0293788583640249e+00   1.0295731903798535e+00   1.0254117155162144e+00   1.0298781065571379e+00   1.0135250195829044e+00   1.0173281241720891e+00   1.0050783733363007e+00   1.0071901294669299e+00   1.0013355006226687e+00   1.0018421419002550e+00   1.0003873684286637e+00   1.0002912645145556e+00   1.0004187523603003e+00   1.0004381605726653e+00   1.0018438777897194e+00   1.0018155518855802e+00   1.0068314932185187e+00   1.0061222744549871e+00   1.0165394295794106e+00   1.0151667556611943e+00   1.0285968560530063e+00   1.0276231299705665e+00   1.0285190207097865e+00   1.0320600916804277e+00   1.0059006000453119e+00   1.0108769701369527e+00   1.0029411888667001e+00   1.0026645251764994e+00   1.0116289055474086e+00   1.0072786109142839e+00   1.0352950538727512e+00   1.0345682682948552e+00   1.0355677640336614e+00   1.0391209527066443e+00   1.0265031498986601e+00   1.0294791381273087e+00   1.0201372762596566e+00   1.0214770072772557e+00   1.0186556909085711e+00   1.0178937964717441e+00   1.0247162849388896e+00   1.0214668900865393e+00   1.0163636082269383e+00   1.0141286481260696e+00   1.0175489490993515e+00   1.0138721653243163e+00   1.0278573936264017e+00   1.0257027319113221e+00   1.0441621142512778e+00   1.0471347579654053e+00   1.0594169028596057e+00   1.0683720279777900e+00   1.0573405687912070e+00   1.0729159694128003e+00   1.0180192620145962e+00   1.0475059801831756e+00   1.0067507742811164e+00   1.0099208099660486e+00   1.0419983808653586e+00   1.0419983808653592e+00   1.0679070838359930e+00   1.0873441669492152e+00   1.0519716730806676e+00   1.0783544650657166e+00   1.0296283136717528e+00   1.0525284472416345e+00   1.0129386432539662e+00   1.0277344270098656e+00   1.0032845237921899e+00   1.0098770869605391e+00   1.0000301232097255e+00   1.0010937417832639e+00   1.0019640124753257e+00   1.0011467775052143e+00   1.0089973049044187e+00   1.0095843002464897e+00   1.0218724503003238e+00   1.0260880763934366e+00   1.0398707763177266e+00   1.0489956621570589e+00   1.0574909830404486e+00   1.0718001942359157e+00   1.0583311617296922e+00   1.0776316205195875e+00   1.0199947280941699e+00   1.0524094724876116e+00   1.0059006062589522e+00   1.0108769992643503e+00   1.0402167187004485e+00   1.0377004995727164e+00   1.0692359812807479e+00   1.0828399881286490e+00   1.0561971468689626e+00   1.0757029578857504e+00   1.0356357067117594e+00   1.0516379334784167e+00   1.0214599363023713e+00   1.0288386564817205e+00   1.0136172736880744e+00   1.0134248149018494e+00   1.0217459030553533e+00   1.0137367450108641e+00   1.0033489153775808e+00   1.0003355610846298e+00   1.0143517124928931e+00   1.0052166612477382e+00   1.0439040997647238e+00   1.0365035855971425e+00   1.0794428972129297e+00   1.0784380989207216e+00   1.1035058580856700e+00   1.1089290980758331e+00   1.0945463019790020e+00   1.1079323974523116e+00   1.0507441011331431e+00   1.0671495759861396e+00   1.0295731903798546e+00   1.0293788583640258e+00   1.0873441669492170e+00   1.0679070838359950e+00   1.1349871622229126e+00   1.1349871622229131e+00   1.1193063973048318e+00   1.1426033035724676e+00   1.0830231333643057e+00   1.1165187923629705e+00   1.0441541939782786e+00   1.0723722925898200e+00   1.0147160713321728e+00   1.0311699702849499e+00   1.0014291401479785e+00   1.0061274574841319e+00   1.0066228617338524e+00   1.0044016317298436e+00   1.0284197299641114e+00   1.0258860781368677e+00   1.0614155983817206e+00   1.0633879450560035e+00   1.0964487607724498e+00   1.1042551491295141e+00   1.1187088686753952e+00   1.1308940830567595e+00   1.1068811696975507e+00   1.1247107788880719e+00   1.0583311785516956e+00   1.0776316144291884e+00   1.0285190118736875e+00   1.0320600861720102e+00   1.0772652246583363e+00   1.0597532609295361e+00   1.1200808646104088e+00   1.1186685382779362e+00   1.1033431757407113e+00   1.1217638692636034e+00   1.0659321751882180e+00   1.0919771434171572e+00   1.0297675742150902e+00   1.0471201346144781e+00   1.0031833229232920e+00   1.0086220449592891e+00   1.0105025789579438e+00   1.0000000000000000e+00   1.0000000000000000e+00   1.0000000000000000e+00   1.0137581259328881e+00   1.0000000000000000e+00   1.0646727627311765e+00   1.0517001324318083e+00   1.1113196285894209e+00   1.1049953608727636e+00   1.1275192714852316e+00   1.1287938551277803e+00   1.1008754715933584e+00   1.1094997295958500e+00   1.0490242620436663e+00   1.0604452862097959e+00   1.0298781065571390e+00   1.0254117155162144e+00   1.0783544650657177e+00   1.0519716730806685e+00   1.1426033035724674e+00   1.1193063973048316e+00   1.1663179596220159e+00   1.1663179596220150e+00   1.1426150321910393e+00   1.1673462973967690e+00   1.0894211079643645e+00   1.1235072656081129e+00   1.0361493280887806e+00   1.0629336783481946e+00   1.0075610578736505e+00   1.0176599775513515e+00   1.0167039041237507e+00   1.0127679293991989e+00   1.0571381433709259e+00   1.0495099434732160e+00   1.1088933407511661e+00   1.1053790675995059e+00   1.1485334308331752e+00   1.1506324997626409e+00   1.1550572282037337e+00   1.1621598558846358e+00   1.1187088707423101e+00   1.1308940829174710e+00   1.0574909742123006e+00   1.0718001971277993e+00   1.0285968676549697e+00   1.0276231272499687e+00   1.0671176671170659e+00   1.0443807408988204e+00   1.1212175711443051e+00   1.1011726018349142e+00   1.1349952722933017e+00   1.1362810695450465e+00   1.1007984046569064e+00   1.1239840332128983e+00   1.0460726599545962e+00   1.0714383113795600e+00   1.0000000000000000e+00   1.0092648505948723e+00   1.0000000000000000e+00   1.0000000000000000e+00   1.0000000000000000e+00   1.0000000000000000e+00   1.0187552969177991e+00   1.0000088069591573e+00   1.0815792330753939e+00   1.0658940155564587e+00   1.1216611452885852e+00   1.1124587786357005e+00   1.1191828271256403e+00   1.1175564697471090e+00   1.0800099611804534e+00   1.0855231504768617e+00   1.0329149038534249e+00   1.0401348676666133e+00   1.0173281241720882e+00   1.0135250195829033e+00   1.0525284472416334e+00   1.0296283136717510e+00   1.1165187923629687e+00   1.0830231333643037e+00   1.1673462973967670e+00   1.1426150321910362e+00   1.1742011873105502e+00   1.1742011873105493e+00   1.1315354638925448e+00   1.1560231666377530e+00   1.0651682787592496e+00   1.0958471801303236e+00   1.0197952553721070e+00   1.0344445461925247e+00   1.0324252800527249e+00   1.0258019069468629e+00   1.0874920267317016e+00   1.0749186340886976e+00   1.1432317321620324e+00   1.1348221312879458e+00   1.1672943408973098e+00   1.1642306439251811e+00   1.1485334314303630e+00   1.1506325000998365e+00   1.0964487611978488e+00   1.1042551502153743e+00   1.0398707782761656e+00   1.0489956628973274e+00   1.0165394314728782e+00   1.0151667569155072e+00   1.0435035873700349e+00   1.0242879210992633e+00   1.0964592436496485e+00   1.0685100316292189e+00   1.1325777430909019e+00   1.1145854222223284e+00   1.1196532726013215e+00   1.1268676718259965e+00   1.0673112424619009e+00   1.0910939667596145e+00   1.0000000000000000e+00   1.0185170403990431e+00   1.0000000000000000e+00   1.0000000000000000e+00   1.0000000000000000e+00   1.0096035616147230e+00   1.0259229202546041e+00   1.0052017095234791e+00   1.0832051198227723e+00   1.0676022109940264e+00   1.1032480594883611e+00   1.0922850011812519e+00   1.0861419369561260e+00   1.0813059682674646e+00   1.0499339774607905e+00   1.0511192020594748e+00   1.0173214101539925e+00   1.0207553847595261e+00   1.0071901294669288e+00   1.0050783733362998e+00   1.0277344270098636e+00   1.0129386432539649e+00   1.0723722925898171e+00   1.0441541939782768e+00   1.1235072656081102e+00   1.0894211079643625e+00   1.1560231666377514e+00   1.1315354638925430e+00   1.1494040103195291e+00   1.1494040103195284e+00   1.0956369235909700e+00   1.1196562110118884e+00   1.0339865767025012e+00   1.0523756090513099e+00   1.0460746785108495e+00   1.0364244640418458e+00   1.1044471094125388e+00   1.0873064682674096e+00   1.1444220715740934e+00   1.1319861294290463e+00   1.1432317323754213e+00   1.1348221313804681e+00   1.1088933412970734e+00   1.1053790680257192e+00   1.0614155992937617e+00   1.0633879456803947e+00   1.0218724511686088e+00   1.0260880771101268e+00   1.0068314937180407e+00   1.0061222748673009e+00   1.0220523719599541e+00   1.0100441188726421e+00   1.0585598872852564e+00   1.0353924752975872e+00   1.0960989348660906e+00   1.0702518258758045e+00   1.1076057931127570e+00   1.0953615706133160e+00   1.0819509791423318e+00   1.0907095915932778e+00   1.0039472702368561e+00   1.0328100390046737e+00   1.0000000000000000e+00   1.0000000000000000e+00   1.0000000000000000e+00   1.0458681806334820e+00   1.0250242497793669e+00   1.0023434345251434e+00   1.0598066326879074e+00   1.0458097511241460e+00   1.0616413758203318e+00   1.0490545488631726e+00   1.0440270070098330e+00   1.0365294471080724e+00   1.0225653591504960e+00   1.0201703948678458e+00   1.0068689833296141e+00   1.0074712079609620e+00   1.0018421419002548e+00   1.0013355006226683e+00   1.0098770869605391e+00