<?xml version="1.0"?>
<VTKFile type="UnstructuredGrid"  version="0.1"  >
<UnstructuredGrid>
<Piece  NumberOfPoints="961" NumberOfCells="1800">
<Points>
<DataArray  type="Float64"  NumberOfComponents="3"  format="ascii">0 0 0  0.03333333333333333 0 0  0.06666666666666667 0 0  0.09999999999999999 0 0  0.1333333333333333 0 0  0.1666666666666667 0 0  0.2 0 0  0.2333333333333334 0 0  0.2666666666666667 0 0  0.3 0 0  0.3333333333333333 0 0  0.3666666666666666 0 0  0.4 0 0  0.4333333333333333 0 0  0.4666666666666667 0 0  0.5 0 0  0.5333333333333333 0 0  0.5666666666666667 0 0  0.6 0 0  0.6333333333333333 0 0  0.6666666666666666 0 0  0.7 0 0  0.7333333333333333 0 0  0.7666666666666667 0 0  0.8 0 0  0.8333333333333334 0 0  0.8666666666666667 0 0  0.9 0 0  0.9333333333333335 0 0  0.9666666666666667 0 0  1 0 0  0 0.03333333333333333 0  0.04067105073696625 0.04067105073696623 0  0.07474391371890499 0.03792660423367025 0  0.1066881717583442 0.03425789578779394 0  0.1382819961691212 0.03107683441625664 0  0.1699989180308924 0.02861355963778549 0  0.2019340716227696 0.02695811916669203 0  0.234043438171134 0.02619553347854825 0  0.2662140411656463 0.02639753015634131 0  0.2983101664253952 0.02760139819935315 0  0.3302241529199086 0.02982826795365523 0  0.3619195666336558 0.03314848421598326 0  0.3934991300407809 0.0377758888768286 0  0.4254309308719149 0.04415585048318645 0  0.4593427956832237 0.052621568428748 0  0.499219790575239 0.05935587485140493 0  0.5403881272366907 0.05291255073830783 0  0.5746227722674654 0.04411219554156955 0  0.606628844027977 0.0376554096621566 0  0.6382506118382294 0.03302765077486995 0  0.6699820148143031 0.02972876025313378 0  0.7019257151820731 0.02753347933443242 0  0.7340410315479401 0.02636820136983144 0  0.7662168568077999 0.02620737400616133 0  0.7983189801682333 0.0270074549695151 0  0.8302416393003771 0.02869187080659732 0  0.861951826697508 0.03117138232634051 0  0.8935600464825337 0.03434307262056589 0  0.9255555796357755 0.03792413354608457 0  0.9596342090477048 0.04036579070542119 0  1 0.03333333333333333 0  0 0.06666666666666667 0  0.03792660423367028 0.07474391371890496 0  0.07293619789423016 0.0729361978942301 0  0.1057466059141635 0.0677452229343635 0  0.1376939347375546 0.06221789226474034 0  0.1695573022603208 0.0575154498726575 0  0.2016572666793222 0.0541848991582877 0  0.2340213740024767 0.05258766116703585 0  0.2664848279679767 0.05295683053395018 0  0.2988096662917309 0.0553496791896873 0  0.3308430079443087 0.05967868335915921 0  0.3626209322603891 0.06581837419134069 0  0.3944551060330943 0.07363885729870091 0  0.4270797741684456 0.08277035057290277 0  0.461762076657354 0.09171025158502126 0  0.4994529168397919 0.0962807932854559 0  0.5376150977031634 0.09203918894110692 0  0.572765974105605 0.08294043834468591 0  0.6056521975455885 0.07363260159679498 0  0.6376407046656828 0.06572255256761057 0  0.6695276779420167 0.05955878795535162 0  0.7016423842239846 0.05525025826789317 0  0.734017074714347 0.05290833866415819 0  0.7664899075170022 0.05260199653894118 0  0.7988253860868808 0.05424932964590601 0  0.8308736024265505 0.05759872538053444 0  0.8626753818487588 0.06227550389693702 0  0.8945511591531885 0.06771545451989089 0  0.9272521863134086 0.07274781330805394 0  0.9620758662367993 0.07444442011724309 0  1 0.06666666666666667 0  0 0.09999999999999999 0  0.03425789578779397 0.1066881717583441 0  0.06774522293436355 0.1057466059141634 0  0.1004985305841543 0.1004985305841542 0  0.1330339658462961 0.09368353421988063 0  0.1658601741225105 0.08711885910377333 0  0.1992746092335086 0.08205864024409663 0  0.233266204065961 0.07946123070613925 0  0.2674770881299177 0.07994563444826619 0  0.3013729085381174 0.08355915021725265 0  0.3346328947042194 0.08983146826304869 0  0.3672725364049049 0.09806071366689834 0  0.3995958428299767 0.1074037416379247 0  0.4321145131347863 0.1166869474941653 0  0.4653877808544285 0.1240825924374971 0  0.4996007541637189 0.1271638250467014 0  0.5339893614119043 0.1243505215856709 0  0.567576236753874 0.11697900965047 0  0.6003952350609426 0.1075737635359289 0  0.6329720317272519 0.09808899895680835 0  0.6658244023589012 0.08976235280224462 0  0.6992562728976768 0.08346066994255792 0  0.7332609005134905 0.07988530981983 0  0.767483494740748 0.07947176409421007 0  0.8013923764636295 0.08210823863947922 0  0.8346698516104167 0.08714128350362242 0  0.8673357112638245 0.09361393761105764 0  0.8997003695572314 0.10029962968962 0  0.9322845449514264 0.1054488403728989 0  0.9656569271059555 0.1064399532803688 0  1 0.1 0  0 0.1333333333333333 0  0.03107683441625666 0.1382819961691212 0  0.06221789226474041 0.1376939347375545 0  0.0936835342198807 0.133033965846296 0  0.1259499350306914 0.1259499350306913 0  0.1595412712653029 0.1180941339522527 0  0.1948286831528277 0.1112412829587235 0  0.2317160575720759 0.1073181569622123 0  0.2692590795286053 0.1078562818480765 0  0.3059331231904309 0.1128402406618964 0  0.3409354473296081 0.1208626904081943 0  0.3742555529187184 0.1302749989184072 0  0.4062936085485179 0.1396614851275121 0  0.4375832627613092 0.1477934871948113 0  0.4686201608384242 0.1534850429414811 0  0.4997080417287544 0.1556478097854879 0  0.5308686213293191 0.1537237576002135 0  0.5620773423399877 0.1481523510514953 0  0.5935921091205366 0.1400023021728488 0  0.6258923742612093 0.1304957791095638 0  0.6595068209644394 0.120923457050491 0  0.6948106246679909 0.1127810117651823 0  0.7317108617415528 0.1077876425117575 0  0.7692656688660987 0.1073219713119102 0  0.8059525542750061 0.1112398422571968 0  0.8409712263756483 0.1179796527193486 0  0.874314344200725 0.1256856542957998 0  0.9063860613093612 0.1326642878381458 0  0.9377244954312858 0.1373246176505317 0  0.9688286173538871 0.138048173076754 0  1 0.1333333333333333 0  0 0.1666666666666667 0  0.0286135596377855 0.1699989180308923 0  0.05751544987265752 0.1695573022603206 0  0.08711885910377336 0.1658601741225103 0  0.1180941339522528 0.1595412712653027 0  0.1514125144003359 0.1514125144003358 0  0.1882328322746212 0.1429599952430372 0  0.2291281153805646 0.1371387268686267 0  0.2720865899386099 0.1376647118560464 0  0.3125209607527195 0.1443463754043181 0  0.3489253129290508 0.1536629765849901 0  0.38197741515342 0.1630100273102859 0  0.4127930671629332 0.171142549698974 0  0.4423036373615217 0.177460227233464 0  0.4711673885438125 0.1815431389906549 0  0.4998049425963726 0.1830401034838329 0  0.5284730524342814 0.1817761201150569 0  0.5574184874550329 0.1778687184827876 0  0.5870542857032817 0.171634569801147 0  0.6180525593495826 0.1634713882613865 0  0.651387060151437 0.1539660822451241 0  0.6882192063880455 0.1444064526453493 0  0.7291243037963786 0.1375873047359878 0  0.7720920888192271 0.137135820235445 0  0.8125362065645688 0.1428285075118151 0  0.8489522897070391 0.1510477067518111 0  0.8820203449289129 0.1590287719177804 0  0.9128587151177907 0.1653301475481882 0  0.9424012738698809 0.1691263971605093 0  0.9713081288634134 0.1697583605274887 0  1 0.1666666666666667 0  0 0.2 0  0.02695811916669205 0.2019340716227695 0  0.05418489915828771 0.201657266679322 0  0.08205864024409662 0.1992746092335083 0  0.1112412829587236 0.1948286831528275 0  0.1429599952430373 0.188232832274621 0  0.1795762246789353 0.1795762246789351 0  0.2247908257174887 0.1712356654167217 0  0.2766386339214001 0.1716395823667017 0  0.3209224702278074 0.1802391804744287 0  0.35716060169751 0.1893401809666765 0  0.388742322492828 0.1967677589016551 0  0.4178630117032815 0.2024376627773284 0  0.4457056929106815 0.2065039741468229 0  0.472924847538432 0.2090178805979584 0  0.4999021633101016 0.2099463031375366 0  0.5268907386254298 0.2092538943924238 0  0.5541407319943605 0.2069512247907886 0  0.5820311755685019 0.2030522246208458 0  0.6112251034403094 0.1974826760106674 0  0.6429510013649884 0.19003273375348 0  0.6795717775261561 0.1806596810769787 0  0.7247899843235613 0.1715874987139429 0  0.7766415230944068 0.1711898842236216 0  0.8209289134237636 0.1790710735943422 0  0.8571714853688894 0.1874637900767801 0  0.888760154642747 0.1940474446323599 0  0.9178917599694345 0.1986076231226596 0  0.9457506697063515 0.2011746137428195 0  0.9729925447667134 0.2016810197674253 0  1 0.2 0  0 0.2333333333333333 0  0.02619553347854826 0.234043438171134 0  0.05258766116703585 0.2340213740024766 0  0.07946123070613925 0.2332662040659608 0  0.1073181569622123 0.2317160575720755 0  0.1371387268686268 0.2291281153805642 0  0.1712356654167218 0.2247908257174883 0  0.2172395751063139 0.2172395751063136 0  0.2837572166300414 0.2165033791715088 0  0.3288173796202451 0.2238618860573084 0  0.3628751609854929 0.2286323328594704 0  0.3926913257325642 0.2317294518242781 0  0.4205423064450621 0.2338725380313955 0  0.4474109192348033 0.2353538957645748 0  0.4738019256530987 0.2362762198227912 0  0.5000025545753066 0.2366631979154325 0  0.5262052486180381 0.2365130296440632 0  0.5526015667164506 0.2358190959007687 0  0.5794768603819183 0.2345555350792523 0  0.607333505906328 0.2326265165265546 0  0.6371521638403758 0.2297527453532395 0  0.6712457149360086 0.225182296991713 0  0.7172443957253547 0.2173760207667965 0  0.7837551427466214 0.2162447190627882 0  0.8288100652858292 0.2233584810041195 0  0.8628641704594666 0.2279079132863336 0  0.8926780266974013 0.230734331938023 0  0.9205282353016419 0.2325165056342153 0  0.9473980032165249 0.2335100926637894 0  0.9737926258966921 0.2337831432661462 0  1 0.2333333333333333 0  0 0.2666666666666667 0  0.0263975301563413 0.2662140411656463 0  0.05295683053395015 0.2664848279679766 0  0.07994563444826616 0.2674770881299174 0  0.1078562818480764 0.2692590795286049 0  0.1376647118560464 0.2720865899386093 0  0.1716395823667017 0.2766386339213994 0  0.2165033791715089 0.2837572166300407 0  0.2826325741641401 0.2826325741641397 0  0.3284353799196462 0.2748278392022574 0  0.3624470485612925 0.2702576851427883 0  0.3922582676020401 0.2673832117562779 0  0.420173179893763 0.265452390474459 0  0.4471641750831
[...]
<CellData  Scalars="q"> 
<DataArray  type="Float64"  Name="q"  format="ascii">1.0143561080601904e+00   1.0143561080601904e+00   1.0000000000000000e+00   1.0000000000000000e+00   1.0000000000000000e+00   1.0000000000000000e+00   1.0000000000000000e+00   1.0000000000000000e+00   1.0023188411283781e+00   1.0000000000000000e+00   1.0159232154993605e+00   1.0051820669646965e+00   1.0250799813963456e+00   1.0181399221253111e+00   1.0247812176803706e+00   1.0231241628259709e+00   1.0148515637512814e+00   1.0172853826714334e+00   1.0003883431585863e+00   1.0036206444607534e+00   1.0000000000000000e+00   1.0000000000000000e+00   1.0000000000000000e+00   1.0000000000000000e+00   1.0112783348627550e+00   1.0000000000000000e+00   1.0500421632567409e+00   1.0000000000000000e+00   1.1031394833991044e+00   1.0311235715867373e+00   1.0819936621767663e+00   1.0561920924606349e+00   1.0272333865255843e+00   1.0202656540321720e+00   1.0000000000000000e+00   1.0000000000000000e+00   1.0000000000000000e+00   1.0000000000000000e+00   1.0000000000000000e+00   1.0000000000000000e+00   1.0110215904941917e+00   1.0000000000000000e+00   1.0228484207643469e+00   1.0145043985796105e+00   1.0260053742034247e+00   1.0226582598127587e+00   1.0191159599770709e+00   1.0201075519944953e+00   1.0061307459224107e+00   1.0087370704592673e+00   1.0000000000000000e+00   1.0000000000000000e+00   1.0000000000000000e+00   1.0000000000000000e+00   1.0000000000000000e+00   1.0000000000000000e+00   1.0191423759499836e+00   1.0000000000000000e+00   1.0038283285254788e+00   1.0229982065352430e+00   1.0000000000000000e+00   1.0000000000000000e+00   1.0013600222730976e+00   1.0013600222730976e+00   1.0000000000000000e+00   1.0161420076022858e+00   1.0000000000000000e+00   1.0117106581844346e+00   1.0000000000000000e+00   1.0084483280998566e+00   1.0073966805753845e+00   1.0108200561583449e+00   1.0170977102726146e+00   1.0163165071187590e+00   1.0200506019377811e+00   1.0198730547496648e+00   1.0148216411751720e+00   1.0188018553904610e+00   1.0056983102997570e+00   1.0153607450294799e+00   1.0000000000000000e+00   1.0147303809808239e+00   1.0004796223318844e+00   1.0202000146427626e+00   1.0063888049604064e+00   1.0282925510377703e+00   1.0028471987884615e+00   1.0284444927420593e+00   1.0000000000000000e+00   1.0068856796399706e+00   1.0171108344264188e+00   1.0055860794893834e+00   1.0226269103108765e+00   1.0351019675328874e+00   1.0046951424569539e+00   1.0363735270396521e+00   1.0000000000000000e+00   1.0199646952607675e+00   1.0000000000000000e+00   1.0099578056248546e+00   1.0035236510597911e+00   1.0092718633736180e+00   1.0145578593413758e+00   1.0144182519178777e+00   1.0198951594642558e+00   1.0191950990100167e+00   1.0168165032165859e+00   1.0195326917978329e+00   1.0084647265403381e+00   1.0162997149401745e+00   1.0008085424415789e+00   1.0136310604283052e+00   1.0000000000000000e+00   1.0140928140861996e+00   1.0000000000000000e+00   1.0144094177263159e+00   1.0003655396242053e+00   1.0059183850536968e+00   1.0191423767067629e+00   1.0000000000000000e+00   1.0000000000000000e+00   1.0000000000000000e+00   1.0161420076022862e+00   1.0000000000000000e+00   1.0533898701874806e+00   1.0533898701874806e+00   1.0524784541707199e+00   1.0671318131191057e+00   1.0402235607427852e+00   1.0600062208744199e+00   1.0288384030052464e+00   1.0429347070743562e+00   1.0227537675146781e+00   1.0286640192653791e+00   1.0223601964639786e+00   1.0235990088696185e+00   1.0276217393776423e+00   1.0301693072202465e+00   1.0387859182363335e+00   1.0468200339547047e+00   1.0547341223202105e+00   1.0684867394417195e+00   1.0701013110099540e+00   1.0864365399017628e+00   1.0729356048800693e+00   1.0888631013862065e+00   1.0511497857866214e+00   1.0651019852838757e+00   1.0157926356493105e+00   1.0246652871107429e+00   1.0231096406269939e+00   1.0134177163302935e+00   1.0731317111136001e+00   1.0613880858701172e+00   1.0889018929146097e+00   1.0980914799639436e+00   1.0716515222856486e+00   1.0968426199787067e+00   1.0488241200424728e+00   1.0756014191447041e+00   1.0317613936876111e+00   1.0500755525383056e+00   1.0232247886607735e+00   1.0311136867744986e+00   1.0218854741348498e+00   1.0235092272921820e+00   1.0259072589944587e+00   1.0278308106110625e+00   1.0338770602896568e+00   1.0406865619465326e+00   1.0434108721933626e+00   1.0555259005002977e+00   1.0479647141255564e+00   1.0626765474147086e+00   1.0364485388615781e+00   1.0509404635599418e+00   1.0000000000000000e+00   1.0144094192182949e+00   1.0000000000000000e+00   1.0000000000000000e+00   1.0000000000000000e+00   1.0000000000000000e+00   1.0117106581844346e+00   1.0000000000000000e+00   1.0671318131191059e+00   1.0524784541707199e+00   1.0928122017720736e+00   1.0928122017720738e+00   1.0870211590082266e+00   1.1049513355632627e+00   1.0604547973796798e+00   1.0829251508945923e+00   1.0355058245841606e+00   1.0493472465803277e+00   1.0309358778737634e+00   1.0326543244389781e+00   1.0510987622441199e+00   1.0485862913201935e+00   1.0836468644970929e+00   1.0853899157792672e+00   1.1112300957868573e+00   1.1183603909773046e+00   1.1191510036321937e+00   1.1288534895749400e+00   1.0983937628251883e+00   1.1095352837265309e+00   1.0532428877862197e+00   1.0659552456138242e+00   1.0131721752798026e+00   1.0208942111214883e+00   1.0208770559917770e+00   1.0099067223287197e+00   1.0704937151299707e+00   1.0484027000339691e+00   1.1142262170611439e+00   1.1013366820724069e+00   1.1267975127417102e+00   1.1345790122962960e+00   1.1071590095791290e+00   1.1319069555339769e+00   1.0707639665170379e+00   1.0987034610063580e+00   1.0391119034103713e+00   1.0564334987581177e+00   1.0294894892509188e+00   1.0331115411152836e+00   1.0444366306227371e+00   1.0427814629843850e+00   1.0698462845522076e+00   1.0721040563654667e+00   1.0871791395116306e+00   1.0952835607192932e+00   1.0816688265886312e+00   1.0937578973841273e+00   1.0479647155474958e+00   1.0626765487517333e+00   1.0000000000000000e+00   1.0140928160399161e+00   1.0000000000000000e+00   1.0000000000000000e+00   1.0000000000000000e+00   1.0023188411283781e+00   1.0084483280998568e+00   1.0000000000000000e+00   1.0600062208744201e+00   1.0402235607427852e+00   1.1049513355632632e+00   1.0870211590082268e+00   1.1183086775269599e+00   1.1183086775269602e+00   1.0959193151526863e+00   1.1120449006757367e+00   1.0565265987927899e+00   1.0736048196040313e+00   1.0434203310832160e+00   1.0446123593472731e+00   1.0756926039704766e+00   1.0675754131328952e+00   1.1173985305808720e+00   1.1133790351640918e+00   1.1372378473665670e+00   1.1368754654047690e+00   1.1245772205774751e+00   1.1267035437823485e+00   1.0861457345367682e+00   1.0911999150185223e+00   1.0389415397323534e+00   1.0466769183025439e+00   1.0072279019164032e+00   1.0117682256661762e+00   1.0109876180075794e+00   1.0035848596541650e+00   1.0497066493725584e+00   1.0281349975677312e+00   1.1018583970688858e+00   1.0743991951289824e+00   1.1411164873915711e+00   1.1218465713639891e+00   1.1442030995555004e+00   1.1455202983627297e+00   1.1121577764181971e+00   1.1315070313361291e+00   1.0635871981902274e+00   1.0843391622248166e+00   1.0412047982890933e+00   1.0458420587811132e+00   1.0651201147137759e+00   1.0592330319188137e+00   1.0984252777722514e+00   1.0966333093114917e+00   1.1089023933033204e+00   1.1124193920956809e+00   1.0871791401843591e+00   1.0952835617338275e+00   1.0434108740205796e+00   1.0555259017986405e+00   1.0008085437015528e+00   1.0136310615873709e+00   1.0000000000000000e+00   1.0000000000000000e+00   1.0051820669646967e+00   1.0159232154993609e+00   1.0108200561583456e+00   1.0073966805753851e+00   1.0429347070743560e+00   1.0288384030052469e+00   1.0829251508945918e+00   1.0604547973796792e+00   1.1120449006757371e+00   1.0959193151526865e+00   1.1213204034030599e+00   1.1213204034030602e+00   1.0765549611004341e+00   1.0910286718802675e+00   1.0473309645075173e+00   1.0456063972096916e+00   1.0832609650587579e+00   1.0708991232443779e+00   1.1191855024314166e+00   1.1067807033280235e+00   1.1179553582561155e+00   1.1104460655055131e+00   1.0910854335419145e+00   1.0858613862373434e+00   1.0541109717747226e+00   1.0530322217983419e+00   1.0213319193976051e+00   1.0238529197969553e+00   1.0026792368744564e+00   1.0050861487072089e+00   1.0039669194742271e+00   1.0005151558578942e+00   1.0255850486057965e+00   1.0117282959328917e+00   1.0620565097865202e+00   1.0375232313682763e+00   1.1033410110425788e+00   1.0733408544761947e+00   1.1309886847767014e+00   1.1098488891097076e+00   1.1376411854030191e+00   1.1362075960941984e+00   1.0852763096787681e+00   1.1020638644218996e+00   1.0441452407370495e+00   1.0466403674252462e+00   1.0725224888726352e+00   1.0624679260315812e+00   1.1030502613280559e+00   1.0944315191258183e+00   1.0984252717685774e+00   1.0966333123310583e+00   1.0698462861092133e+00   1.0721040511199584e+00   1.0338770610516759e+00   1.0406865630060143e+00   1.0084647264183184e+00   1.0162997148071256e+00   1.0061307446622707e+00   1.0087370692329154e+00   1.0181399221253111e+00   1.0250799813963454e+00   1.0163165071187596e+00   1.0170977102726146e+00   1.0286640192653798e+00   1.0227537675146789e+00   1.0493472465803273e+00   1.0355058245841606e+00   1.0736048196040309e+00   1.0565265987927892e+00   1.0910286718802671e+00   1.0765549611004332e+00   1.0469009793498210e+00   1.0469009793498203e+00   1.0180158444076803e+00   1.0087821442894676e+00   1.0617271634933896e+00   1.0252896660817119e+00   1.0768072199363750e+00   1.0631256669492455e+00   1.0669503468220793e+00   1.0560141109448551e+00   1.0434134607353849e+00   1.0362819825205336e+00   1.0221508992786583e+00   1.0187277763515707e+00   1.0079136031492784e+00   1.0073330930430793e+00   1.0009656776579225e+00   1.0016691536053872e+00   1.0007787531500214e+00   1.0001301367301387e+00   1.0079153525344147e+00   1.0025904410879394e+00   1.0236508927338150e+00   1.0108629446570006e+00   1.0474617742380596e+00   1.0267033782683028e+00   1.0748917875307531e+00   1.0504589601621166e+00   1.0952075813647242e+00   1.0740633850164250e+00   1.0517741010463997e+00   1.0486463651795623e+00   1.0167824681738109e+00   1.0097512996991092e+00   1.0562141079995611e+00   1.0229704896337879e+00   1.0725224387050685e+00   1.0624679896007603e+00   1.0651201154302838e+00   1.0592329348693603e+00   1.0444366278569015e+00   1.0427814673732281e+00   1.0259072595818923e+00   1.0278308116565844e+00   1.0168165025416080e+00   1.0195326918656842e+00   1.0191159583899989e+00   1.0201075510515829e+00   1.0231241628259709e+00   1.0247812176803710e+00   1.0198730547496648e+00   1.0200506019377813e+00   1.0235990088696183e+00   1.0223601964639784e+00   1.0326543244389776e+00   1.0309358778737625e+00   1.0446123593472718e+00   1.0434203310832142e+00   1.0456063972096898e+00   1.0473309645075157e+00   1.0087821442894669e+00   1.0180158444076788e+00   1.0038955293655059e+00   1.0038955293655059e+00   1.0146940236611917e+00   1.0090721074791071e+00   1.0373836280531608e+00   1.0405883980972381e+00   1.0299245712417964e+00   1.0354959071054559e+00   1.0153457164402921e+00   1.0197901216250638e+00   1.0056667221542375e+00   1.0080618022682715e+00   1.0014709921711105e+00   1.0020496633636715e+00   1.0004220733185045e+00   1.0003242843866627e+00   1.0004633666636786e+00   1.0004757105640898e+00   1.0020572609427738e+00   1.0019852743483284e+00   1.0076860463639394e+00   1.0067906328705991e+00   1.0189678199085304e+00   1.0171343334552632e+00   1.0340636018906917e+00   1.0323933995074315e+00   1.0394687178101407e+00   1.0407051832844045e+00   1.0080771777828075e+00   1.0159711822297113e+00   1.0040659208508551e+00   1.0037262140035375e+00   1.0167828751973091e+00   1.0097514672078847e+00   1.0441450903696732e+00   1.0466402951208249e+00   1.0412047678529288e+00   1.0458421976399805e+00   1.0294894968499371e+00   1.0331115562800020e+00   1.0218854760344469e+00   1.0235092338441876e+00   1.0198951605459361e+00   1.0191951017627621e+00   1.0260053739452191e+00   1.0226582606799719e+00   1.0172853826714339e+00   1.0148515637512814e+00   1.0188018553904612e+00   1.0148216411751725e+00   1.0301693072202456e+00   1.0276217393776415e+00   1.0485862913201911e+00   1.0510987622441172e+00   1.0675754131328925e+00   1.0756926039704733e+00   1.0708991232443763e+00   1.0832609650587561e+00   1.0252896660817115e+00   1.0617271634933887e+00   1.0090721074791080e+00   1.0146940236611928e+00   1.0537503769231724e+00   1.0537503769231733e+00   1.0834527485499350e+00   1.1070608879658421e+00   1.0587829775248443e+00   1.0871902596466270e+00   1.0324261329211408e+00   1.0571729428796828e+00   1.0139470022296619e+00   1.0297266692204554e+00   1.0035040206417458e+00   1.0104865696712588e+00   1.0000321866592286e+00   1.0011553319828808e+00   1.0020867379269185e+00   1.0012179374299890e+00   1.0096044034273868e+00   1.0101709597723838e+00   1.0236046518309490e+00   1.0278573118240093e+00   1.0438086857712670e+00   1.0529555513399966e+00   1.0653700415876273e+00   1.0793742381987095e+00   1.0720508066592611e+00   1.0885109272300615e+00   1.0277546334014347e+00   1.0676383281128996e+00   1.0080772988251125e+00   1.0159715752718133e+00   1.0517743780842304e+00   1.0486466118655655e+00   1.0852764572348432e+00   1.1020644967661513e+00   1.0635873536369720e+00   1.0843393995354127e+00   1.0391119119693575e+00   1.0564334956600590e+00   1.0232247968794970e+00   1.0311137042939325e+00   1.0145578625715581e+00   1.0144182544590461e+00   1.0228484221809855e+00   1.0145044005269692e+00   1.0036206444607536e+00   1.0003883431585863e+00   1.0153607450294793e+00   1.0056983102997568e+00   1.0468200339547020e+00   1.0387859182363313e+00   1.0853899157792626e+00   1.0836468644970878e+00   1.1133790351640882e+00   1.1173985305808669e+00   1.1067807033280221e+00   1.1191855024314141e+00   1.0631256669492459e+00   1.0768072199363756e+00   1.0405883980972397e+00   1.0373836280531628e+00   1.1070608879658432e+00   1.0834527485499366e+00   1.1545563282887863e+00   1.1545563282887865e+00   1.1294986339030195e+00   1.1541254351990924e+00   1.0889389127389566e+00   1.1249773849625371e+00   1.0468997790105481e+00   1.0768558628955081e+00   1.0155893891709256e+00   1.0330278688466039e+00   1.0015582604248503e+00   1.0065747454411349e+00   1.0070599348264824e+00   1.0047787013772203e+00   1.0301303141057545e+00   1.0274864921184521e+00   1.0653441676140094e+00   1.0672752438937545e+00   1.1035905734563154e+00   1.1112374271709331e+00   1.1299450272536813e+00   1.1411331157109998e+00   1.1205216605103534e+00   1.1376384480908568e+00   1.0720509269148162e+00   1.0885108655543829e+00   1.0394686767556527e+00   1.0407050928344264e+00   1.0952081754707850e+00   1.0740634717061690e+00   1.1376421797573300e+00   1.1362086325890566e+00   1.1121579312700347e+00   1.1315069153876471e+00   1.0707639927540473e+00   1.0987034958030297e+00   1.0317614056860624e+00   1.0500755665064887e+00   1.0035236527545666e+00   1.0092718646036634e+00   1.0110215920036600e+00   1.0000000000000000e+00   1.0000000000000000e+00   1.0000000000000000e+00   1.0147303809808235e+00   1.0000000000000000e+00   1.0684867394417157e+00   1.0547341223202078e+00   1.1183603909772977e+00   1.1112300957868508e+00   1.1368754654047630e+00   1.1372378473665594e+00   1.1104460655055113e+00   1.1179553582561121e+00   1.0560141109448566e+00   1.0669503468220789e+00   1.0354959071054588e+00   1.0299245712417993e+00   1.0871902596466296e+00   1.0587829775248476e+00   1.1541254351990931e+00   1.1294986339030229e+00   1.1778893409854481e+00   1.1778893409854485e+00   1.1520008794078729e+00   1.1785290041903806e+00   1.0950383420875991e+00   1.1313557276303658e+00   1.0386300278724283e+00   1.0672617295688447e+00   1.0083968572127511e+00   1.0193361728280288e+00   1.0181008343896325e+00   1.0141742338068163e+00   1.0608426868213185e+00   1.0530668895572672e+00   1.1156744784420427e+00   1.1121212915151495e+00   1.1583104930722203e+00   1.1601812493690011e+00   1.1666612208152967e+00   1.1731963932722969e+00   1.1299450370126869e+00   1.1411331096423249e+00   1.0653699452843224e+00   1.0793742515270701e+00   1.0340636993403056e+00   1.0323933696287149e+00   1.0748920127774406e+00   1.0504590643718705e+00   1.1309886128019073e+00   1.1098491019539960e+00   1.1442028603634280e+00   1.1455200403535692e+00   1.1071590217749179e+00   1.1319070221085250e+00   1.0488241228423540e+00   1.0756014139558063e+00   1.0000000000000000e+00   1.0099578086385714e+00   1.0000000000000000e+00   1.0000000000000000e+00   1.0000000000000000e+00   1.0000000000000000e+00   1.0202000146427623e+00   1.0004796223318844e+00   1.0864365399017579e+00   1.0701013110099511e+00   1.1288534895749331e+00   1.1191510036321870e+00   1.1267035437823418e+00   1.1245772205774685e+00   1.0858613862373405e+00   1.0910854335419102e+00   1.0362819825205327e+00   1.0434134607353829e+00   1.0197901216250660e+00   1.0153457164402930e+00   1.0571729428796874e+00   1.0324261329211444e+00   1.1249773849625406e+00   1.0889389127389613e+00   1.1785290041903806e+00   1.1520008794078735e+00   1.1857275835625656e+00   1.1857275835625649e+00   1.1405784765144702e+00   1.1668535025282607e+00   1.0707432015743343e+00   1.1035616739018588e+00   1.0225225689923663e+00   1.0384584967173955e+00   1.0360091590728917e+00   1.0295076282561286e+00   1.0941716853569383e+00   1.0817934759251868e+00   1.1527801288813522e+00   1.1446634058652960e+00   1.1779465815033898e+00   1.1749899909162438e+00   1.1583104959399551e+00   1.1601812513288310e+00   1.1035905707957820e+00   1.1112374326490895e+00   1.0438086952895076e+00   1.0529555523881524e+00   1.0189678334972994e+00   1.0171343405556990e+00   1.0474617777569541e+00   1.0267033793924449e+00   1.1033410458833115e+00   1.0733408948954923e+00   1.1411165393681000e+00   1.1218465673483982e+00   1.1267975509837602e+00   1.1345790558403912e+00   1.0716515254042474e+00   1.0968426147232244e+00   1.0000000000000000e+00   1.0199647025727840e+00   1.0000000000000000e+00   1.0000000000000000e+00   1.0000000000000000e+00   1.0112783348627561e+00   1.0282925510377690e+00   1.0063888049604057e+00   1.0888631013862020e+00   1.0729356048800662e+00   1.1095352837265249e+00   1.0983937628251823e+00   1.0911999150185174e+00   1.0861457345367640e+00   1.0530322217983394e+00   1.0541109717747199e+00   1.0187277763515694e+00   1.0221508992786568e+00   1.0080618022682726e+00   1.0056667221542375e+00   1.0297266692204587e+00   1.0139470022296644e+00   1.0768558628955107e+00   1.0468997790105505e+00   1.1313557276303641e+00   1.0950383420875980e+00   1.1668535025282596e+00   1.1405784765144671e+00   1.1621790386570232e+00   1.1621790386570225e+00   1.1085404254732472e+00   1.1351788571411925e+00   1.0409363480772347e+00   1.0633370223726433e+00   1.0528633974027741e+00   1.0448136807259316e+00   1.1148413806426114e+00   1.0983005661490108e+00   1.1555102014963317e+00   1.1440651043556160e+00   1.1527801318866717e+00   1.1446634091610630e+00   1.1156744822854943e+00   1.1121212961310596e+00   1.0653441726857471e+00   1.0672752480034458e+00   1.0236046564097032e+00   1.0278573158796360e+00   1.0076860492313187e+00   1.0067906349325786e+00   1.0236509050219880e+00   1.0108629475992301e+00   1.0620565244652924e+00   1.0375232435436770e+00   1.1018583945686662e+00   1.0743991984751402e+00   1.1142262150988691e+00   1.1013366880731266e+00   1.0889018999596833e+00   1.0980914851984362e+00   1.0046951469886332e+00   1.0363735348059122e+00   1.0000000000000000e+00   1.0000000000000000e+00   1.0000000000000000e+00   1.0500421632567409e+00   1.0284444927420595e+00   1.0028471987884631e+00   1.0651019852838717e+00   1.0511497857866201e+00   1.0659552456138197e+00   1.0532428877862159e+00   1.0466769183025419e+00   1.0389415397323511e+00   1.0238529197969528e+00   1.0213319193976029e+00   1.0073330930430784e+00   1.0079136031492766e+00   1.0020496633636722e+00   1.0014709921711105e+00   1.0104865696712604e+00