<?xml version="1.0"?>
<VTKFile type="UnstructuredGrid"  version="0.1"  >
<UnstructuredGrid>
<Piece  NumberOfPoints="961" NumberOfCells="1800">
<Points>
<DataArray  type="Float64"  NumberOfComponents="3"  format="ascii">0 0 0  0.03333333333333333 0 0  0.06666666666666667 0 0  0.1 0 0  0.1333333333333333 0 0  0.1666666666666667 0 0  0.2 0 0  0.2333333333333334 0 0  0.2666666666666667 0 0  0.3 0 0  0.3333333333333333 0 0  0.3666666666666666 0 0  0.4 0 0  0.4333333333333333 0 0  0.4666666666666666 0 0  0.5 0 0  0.5333333333333333 0 0  0.5666666666666667 0 0  0.5999999999999999 0 0  0.6333333333333333 0 0  0.6666666666666666 0 0  0.7 0 0  0.7333333333333334 0 0  0.7666666666666667 0 0  0.8 0 0  0.8333333333333333 0 0  0.8666666666666667 0 0  0.9 0 0  0.9333333333333333 0 0  0.9666666666666666 0 0  1 0 0  0 0.03333333333333333 0  0.04071783930464232 0.0407178393046423 0  0.07477006735347441 0.03794401813358685 0  0.1067005432285116 0.03426116798787163 0  0.1382873525831452 0.03107300614195114 0  0.1700008864294404 0.02860556487103061 0  0.2019346797526245 0.02694760347950163 0  0.2340438200351523 0.02618393065751444 0  0.2662145766955633 0.02638640508104641 0  0.298310464791934 0.0275924379918304 0  0.3302231318001715 0.02982335846735344 0  0.3619153854678062 0.03315035489682103 0  0.3934886911108607 0.03779003812876277 0  0.425408968059448 0.04419601637876275 0  0.4593048426917944 0.05272402872910658 0  0.4992049749062625 0.05956458574436934 0  0.5404314546996117 0.05302690329703511 0  0.5746478730604067 0.04415530223212886 0  0.6066408213169051 0.03767050893253341 0  0.6382558041594918 0.03302991669820454 0  0.6699839124348187 0.02972402818141942 0  0.7019262954615513 0.02752457558901655 0  0.7340414093654852 0.02635704726023418 0  0.7662174076158329 0.0261956659318102 0  0.7983193197905483 0.02699673744393515 0  0.8302407081505754 0.02868352433137161 0  0.8619478429257458 0.03116691776069917 0  0.8935500726795484 0.03434499451875913 0  0.9255348546516449 0.03793783607868561 0  0.9596001981513471 0.04039980172810329 0  0.9999999999999999 0.03333333333333333 0  0 0.06666666666666667 0  0.03794401813358688 0.0747700673534744 0  0.0729516295869026 0.07295162958690256 0  0.1057550301874569 0.06774690163935174 0  0.1376966563673117 0.06220896809475637 0  0.1695568784974247 0.05749873246730552 0  0.2016561349999908 0.05416281484504056 0  0.2340213849629779 0.05256300599978224 0  0.2664866959248867 0.05293305748042366 0  0.2988125769467181 0.05533041603006893 0  0.33084513114009 0.05966739612008089 0  0.3626199801294647 0.06581901491452673 0  0.3944487534777135 0.07365740380176775 0  0.42706674038621 0.08281665237599616 0  0.4617460032412128 0.09179622550458301 0  0.4994489016156303 0.09639958500350874 0  0.5376302872637024 0.09213044213985619 0  0.572780361466196 0.08298983977485183 0  0.6056601398347908 0.07365263291516398 0  0.6376432019209031 0.0657239161106086 0  0.6695271524268898 0.05954783570334137 0  0.7016412125340086 0.05523109132807497 0  0.7340170813873759 0.05288449925028946 0  0.7664918005065526 0.05257714556174849 0  0.7988283605857853 0.05422687405210016 0  0.8308758586627669 0.05758136773465244 0  0.8626747005481366 0.06226549742082421 0  0.8945453637983015 0.06771521232469778 0  0.9272403138059253 0.07275968573952613 0  0.9620621637966361 0.07446514496259835 0  1 0.06666666666666667 0  0 0.1 0  0.03426116798787166 0.1067005432285115 0  0.06774690163935176 0.1057550301874569 0  0.1004961431824712 0.1004961431824711 0  0.1330278403414374 0.09366891705896213 0  0.1658524155888598 0.0870926949136253 0  0.1992683321219511 0.082023017042947 0  0.2332646106539098 0.0794203153160902 0  0.2674816886739551 0.07990590278204625 0  0.3013818249886154 0.08352716390839969 0  0.3346428666548977 0.08981197192595218 0  0.3672805471377622 0.09805716654866059 0  0.3995998518238277 0.1074193727290078 0  0.4321140373019791 0.1167246991759447 0  0.4653847645409371 0.1241423205867582 0  0.4995995588802831 0.1272357495115541 0  0.5339915981044565 0.1244125240713524 0  0.5675772651149528 0.1170190860918032 0  0.6003924897187496 0.1075910426172046 0  0.6329657255645735 0.09808645288250183 0  0.6658165613402698 0.08974335368513379 0  0.6992499662025279 0.08342879850893184 0  0.733259308424853 0.07984544940204689 0  0.7674881218487994 0.0794305934554517 0  0.8014013532174818 0.08207211197990466 0  0.8346799427326427 0.08711422351821387 0  0.8673439487483731 0.09359791304466382 0  0.8997047944743612 0.1002952045852148 0  0.9322847870205532 0.1054546356126447 0  0.965655005174088 0.1064499270040184 0  1 0.1 0  0 0.1333333333333333 0  0.03107300614195117 0.1382873525831452 0  0.06220896809475643 0.1376966563673116 0  0.09366891705896221 0.1330278403414373 0  0.1259306238582305 0.1259306238582304 0  0.159520341933423 0.1180587748411614 0  0.1948116989523037 0.1111894874458125 0  0.231710403984827 0.1072549922307736 0  0.2692693390284763 0.1077945626529407 0  0.3059536122187381 0.1127923964267906 0  0.3409588132767933 0.1208339755606683 0  0.3742765672217316 0.1302660360895186 0  0.4063094385764674 0.1396711389319334 0  0.4375929697463256 0.1478197504482738 0  0.4686242577567858 0.1535241691562043 0  0.4997077925726288 0.1556926581933031 0  0.5308644552900267 0.1537641164407263 0  0.5620681625204206 0.1481803702067093 0  0.5935773436188141 0.1400136818068599 0  0.6258729957180217 0.1304881850611557 0  0.6594858721745367 0.1208955393896368 0  0.6947936442392899 0.1127333092980799 0  0.7317052215779691 0.107725642994648 0  0.769275947944894 0.1072585789186041 0  0.8059730746603146 0.111187411170563 0  0.8409946506097942 0.1179430206678935 0  0.8743354689447894 0.1256645291833804 0  0.9064020855767199 0.1326560501533191 0  0.9377345017100533 0.1373252988444182 0  0.9688330818287041 0.1380521567967817 0  1 0.1333333333333333 0  0 0.1666666666666667 0  0.02860556487103063 0.1700008864294403 0  0.05749873246730555 0.1695568784974246 0  0.08709269491362534 0.1658524155888596 0  0.1180587748411615 0.1595203419334229 0  0.1513709507542378 0.1513709507542378 0  0.188194300411074 0.1428900565992908 0  0.2291117336381145 0.1370418674666509 0  0.2721103962448282 0.1375698415881549 0  0.3125636114898869 0.1442800339415155 0  0.3489690338567649 0.1536265043973268 0  0.3820140892859663 0.1629967829185557 0  0.4128201633317775 0.1711462765944772 0  0.4423210276181556 0.1774761949682692 0  0.4711757996265955 0.1815671190547979 0  0.4998051280143025 0.1830672758201882 0  0.5284651417157299 0.1818009711137402 0  0.55740183556212 0.1778861982288892 0  0.5870281975520544 0.1716401894023945 0  0.6180172845261998 0.1634601195717583 0  0.6513455753893398 0.1539311637239033 0  0.688180734384394 0.1443404904703261 0  0.7291079548758146 0.1374916392650614 0  0.7721158992258317 0.1370391049598598 0  0.8125788361857335 0.1427575875385897 0  0.8489959725948185 0.1510040230540162 0  0.8820569763356102 0.1590053473491334 0  0.912885774665909 0.1653200562836018 0  0.9424186312495408 0.169124140860845 0  0.9713164752139363 0.1697592916509233 0  1 0.1666666666666667 0  0 0.2 0  0.02694760347950164 0.2019346797526244 0  0.0541628148450406 0.2016561349999907 0  0.08202301704294705 0.1992683321219509 0  0.1111894874458126 0.1948116989523035 0  0.1428900565992909 0.1881943004110739 0  0.1794940837048299 0.1794940837048298 0  0.2247394275626798 0.1710832339920882 0  0.2767031312501647 0.1714909345142448 0  0.3210076447088125 0.1801581528356834 0  0.3572316822353502 0.1893029706113392 0  0.3887949655656219 0.1967541602074687 0  0.4178993939738671 0.2024374417237796 0  0.4457284488928838 0.2065118836059815 0  0.4729359257568669 0.209030560564726 0  0.4999026160314152 0.2099608318894659 0  0.5268805994007834 0.2092673206000235 0  0.5541189768439999 0.2069605896972898 0  0.5819958459719079 0.2030541614119958 0  0.6111735637169446 0.1974719585386078 0  0.6428812701923095 0.1899989015597339 0  0.6794897802598338 0.1805808479507698 0  0.7247386499319219 0.1714363449528922 0  0.776705997446725 0.1710391160324395 0  0.8210139882687496 0.1789859959328159 0  0.8572424034663103 0.1874211599913612 0  0.8888125847437017 0.1940269241938123 0  0.9179278860802454 0.1985986463811703 0  0.9457731249908781 0.2011716392571038 0  0.9730032621498397 0.201680680150729 0  1 0.2 0  0 0.2333333333333334 0  0.02618393065751444 0.2340438200351521 0  0.05256300599978226 0.2340213849629777 0  0.07942031531609023 0.2332646106539096 0  0.1072549922307737 0.2317104039848268 0  0.137041867466651 0.2291117336381143 0  0.1710832339920883 0.2247394275626795 0  0.217042264085801 0.2170422640858009 0  0.2839681505732196 0.2162951211777964 0  0.3289683452578148 0.2237998106002377 0  0.3629721787087653 0.2286109592203263 0  0.3927551048367428 0.2317219175495219 0  0.4205839401517872 0.2338711205440264 0  0.4474363049139617 0.2353557593266896 0  0.4738142364960802 0.2362799378931263 0  0.5000032216784062 0.2366677364634382 0  0.5261942637890437 0.2365174323537345 0  0.5525774749495728 0.2358223837892693 0  0.5794364475733741 0.2345564685259564 0  0.607270775752959 0.232622754908063 0  0.6370556623522299 0.2297378089586024 0  0.671093550432199 0.2251321994440997 0  0.7170472176498214 0.2171801350418025 0  0.7839659956977164 0.2160338352162182 0  0.8289608202916192 0.2232940098413324 0  0.8629608827935413 0.2278841042182355 0  0.8927414181117325 0.2307240533786842 0  0.9205694054355731 0.2325118787486392 0  0.9474228538985194 0.2335081997686838 0  0.9738043338297984 0.2337825924921024 0  1 0.2333333333333333 0  0 0.2666666666666667 0  0.02638640508104641 0.266214576695563 0  0.05293305748042366 0.2664866959248866 0  0.07990590278204626 0.2674816886739548 0  0.1077945626529407 0.2692693390284761 0  0.1375698415881549 0.2721103962448279 0  0.1714909345142448 0.2767031312501642 0  0.2162951211777965 0.2839681505732192 0  0.282828654796888 0.2828286547968877 0  0.3285868689196648 0.2748780475562529 0  0.3625431557972362 0.2702727027804562 0  0.3923208201692866 0.2673870366106747 0  0.4202137027982433 0.2654515001194801 0  
[...]
<CellData  Scalars="q"> 
<DataArray  type="Float64"  Name="q"  format="ascii">1.0145106140245885e+00   1.0145106140245885e+00   1.0000000000000000e+00   1.0000000000000000e+00   1.0000000000000000e+00   1.0000000000000000e+00   1.0000000000000000e+00   1.0000000000000000e+00   1.0023340976051489e+00   1.0000000000000000e+00   1.0159881713214829e+00   1.0052127623840164e+00   1.0251782295712748e+00   1.0182190902576578e+00   1.0248770598311316e+00   1.0232213062106061e+00   1.0149092891804425e+00   1.0173593629794011e+00   1.0003937516935772e+00   1.0036439334548111e+00   1.0000000000000000e+00   1.0000000000000000e+00   1.0000000000000000e+00   1.0000000000000000e+00   1.0114272884874496e+00   1.0000000000000000e+00   1.0503798971864400e+00   1.0000000000000000e+00   1.1042500918040994e+00   1.0312207364339634e+00   1.0828264614104446e+00   1.0567381427745945e+00   1.0275116842970837e+00   1.0203870205120928e+00   1.0000000000000000e+00   1.0000000000000000e+00   1.0000000000000000e+00   1.0000000000000000e+00   1.0000000000000000e+00   1.0000000000000000e+00   1.0110628668639956e+00   1.0000000000000000e+00   1.0229357471914438e+00   1.0145658880417092e+00   1.0261077508566863e+00   1.0227533317136175e+00   1.0191951809359643e+00   1.0201958197981118e+00   1.0061635895262460e+00   1.0087848444431238e+00   1.0000000000000000e+00   1.0000000000000000e+00   1.0000000000000000e+00   1.0000000000000000e+00   1.0000000000000000e+00   1.0000000000000000e+00   1.0192770667201692e+00   1.0000000000000000e+00   1.0038690607863689e+00   1.0231956862678222e+00   1.0000000000000000e+00   1.0000000000000000e+00   1.0013889591796672e+00   1.0013889591796672e+00   1.0000000000000000e+00   1.0162832732327898e+00   1.0000000000000000e+00   1.0117747499170673e+00   1.0000000000000000e+00   1.0084939818021144e+00   1.0074442747189369e+00   1.0108809940592134e+00   1.0171869231638115e+00   1.0164075932481313e+00   1.0201513691642792e+00   1.0199822281888640e+00   1.0148990854653426e+00   1.0189038548938436e+00   1.0057392091701332e+00   1.0154434265841590e+00   1.0000000000000000e+00   1.0148097469134676e+00   1.0005197930887682e+00   1.0203159321024122e+00   1.0064872966957072e+00   1.0284815508310472e+00   1.0028942498226239e+00   1.0287250768903635e+00   1.0000000000000000e+00   1.0070574623115263e+00   1.0172581944363976e+00   1.0056928594146362e+00   1.0228728401039850e+00   1.0355081391738921e+00   1.0047588151177276e+00   1.0366670037495982e+00   1.0000000000000000e+00   1.0200805666390445e+00   1.0000000000000000e+00   1.0100149943312773e+00   1.0035527698238387e+00   1.0093257346897424e+00   1.0146342371154078e+00   1.0144993959848609e+00   1.0199953359297629e+00   1.0193008027047481e+00   1.0169040109921144e+00   1.0196387407457839e+00   1.0085177268467822e+00   1.0163864462182186e+00   1.0008308751789128e+00   1.0137012014053155e+00   1.0000000000000000e+00   1.0141674898339565e+00   1.0000000000000000e+00   1.0144996650088267e+00   1.0003578454806761e+00   1.0059915034185476e+00   1.0192770672570832e+00   1.0000000000000000e+00   1.0000000000000000e+00   1.0000000000000000e+00   1.0162832732327902e+00   1.0000000000000000e+00   1.0537177126280155e+00   1.0537177126280155e+00   1.0527100643666707e+00   1.0674108246024072e+00   1.0403962626626342e+00   1.0602537079210936e+00   1.0289849178621866e+00   1.0431340144767509e+00   1.0228969612239445e+00   1.0288373315671768e+00   1.0225065813686938e+00   1.0237675615082200e+00   1.0277781105343737e+00   1.0303588261149119e+00   1.0389692428700168e+00   1.0470550414982229e+00   1.0549742623544283e+00   1.0687892329578086e+00   1.0704321743247687e+00   1.0868183030721135e+00   1.0733586875259327e+00   1.0893081660949400e+00   1.0515851059199537e+00   1.0655278362762497e+00   1.0161350972908831e+00   1.0249353907325476e+00   1.0235175676929649e+00   1.0136749159645317e+00   1.0738314472381996e+00   1.0619888551925554e+00   1.0894602276807619e+00   1.0986801948133358e+00   1.0719936132365335e+00   1.0972939192130777e+00   1.0490421397840552e+00   1.0759284657259245e+00   1.0319223140952758e+00   1.0503111139149528e+00   1.0233695651675692e+00   1.0312991402483305e+00   1.0220290319361660e+00   1.0236769294115926e+00   1.0260549223932272e+00   1.0280079170386001e+00   1.0340346003393162e+00   1.0408892937561152e+00   1.0435895128572314e+00   1.0557594258253331e+00   1.0481687570633620e+00   1.0629283649733070e+00   1.0366315361713228e+00   1.0511656621855798e+00   1.0000000000000000e+00   1.0144996665518189e+00   1.0000000000000000e+00   1.0000000000000000e+00   1.0000000000000000e+00   1.0000000000000000e+00   1.0117747499170680e+00   1.0000000000000000e+00   1.0674108246024074e+00   1.0527100643666714e+00   1.0931905151709262e+00   1.0931905151709262e+00   1.0874221619088198e+00   1.1054403264726855e+00   1.0607916915721327e+00   1.0833845423104962e+00   1.0357755678164808e+00   1.0497072140146011e+00   1.0311947774369994e+00   1.0329604776223660e+00   1.0514234472124633e+00   1.0489533844117647e+00   1.0840651201452067e+00   1.0858720587795805e+00   1.1117228534842130e+00   1.1189213870480275e+00   1.1196765229060024e+00   1.1294199517063432e+00   1.0988744932889682e+00   1.1100292691663838e+00   1.0535795033585775e+00   1.0662961307838359e+00   1.0133268516689655e+00   1.0210613339863190e+00   1.0210593143672457e+00   1.0100190084805030e+00   1.0708810818602115e+00   1.0486922282020164e+00   1.1147416001739199e+00   1.1018029683910098e+00   1.1273589120222776e+00   1.1351861355510742e+00   1.1076676101159635e+00   1.1325411192910246e+00   1.0711570191849553e+00   1.0992541187060332e+00   1.0394005229637633e+00   1.0568335296550082e+00   1.0297384562738126e+00   1.0334182072357685e+00   1.0447228230310366e+00   1.0431121722819945e+00   1.0701882956515854e+00   1.0725088438761579e+00   1.0875430007889131e+00   1.0957173167238272e+00   1.0819941632525998e+00   1.0941395583047364e+00   1.0481687585806321e+00   1.0629283662838633e+00   1.0000000000000000e+00   1.0141674920783157e+00   1.0000000000000000e+00   1.0000000000000000e+00   1.0000000000000000e+00   1.0023340976051487e+00   1.0084939818021152e+00   1.0000000000000000e+00   1.0602537079210941e+00   1.0403962626626351e+00   1.1054403264726851e+00   1.0874221619088194e+00   1.1188938302293179e+00   1.1188938302293177e+00   1.0965261147801775e+00   1.1126958993602700e+00   1.0571034096254435e+00   1.0742336033127229e+00   1.0439277925938248e+00   1.0451765071112686e+00   1.0763075139433487e+00   1.0682747291105548e+00   1.1180850187071179e+00   1.1141998395797144e+00   1.1379126392125363e+00   1.1376300543790199e+00   1.1251312257349697e+00   1.1273017582108489e+00   1.0865265045849362e+00   1.0915986279134235e+00   1.0391322616371024e+00   1.0468857446278832e+00   1.0072867057770303e+00   1.0118347731840709e+00   1.0110583539575371e+00   1.0036144448958391e+00   1.0499384455980605e+00   1.0282643669685498e+00   1.1023108742426950e+00   1.0747252126920430e+00   1.1417992599628548e+00   1.1224255479965080e+00   1.1449331838276446e+00   1.1462514090032474e+00   1.1128635798462145e+00   1.1322715676436284e+00   1.0642175778009182e+00   1.0850441126079828e+00   1.0416924846080857e+00   1.0464187241899845e+00   1.0656585746028204e+00   1.0598649337709181e+00   1.0989947342720239e+00   1.0973358552262455e+00   1.1094186071185450e+00   1.1130278441950281e+00   1.0875430009853937e+00   1.0957173170630772e+00   1.0435895145927716e+00   1.0557594266411439e+00   1.0008308766342060e+00   1.0137012025172507e+00   1.0000000000000000e+00   1.0000000000000000e+00   1.0052127623840161e+00   1.0159881713214827e+00   1.0108809940592134e+00   1.0074442747189367e+00   1.0431340144767511e+00   1.0289849178621868e+00   1.0833845423104957e+00   1.0607916915721327e+00   1.1126958993602700e+00   1.0965261147801773e+00   1.1227315059549725e+00   1.1227315059549727e+00   1.0779886864288455e+00   1.0927451843586891e+00   1.0482139229969740e+00   1.0468328727691920e+00   1.0841412051372219e+00   1.0721804774445394e+00   1.1201340432985543e+00   1.1078192234692517e+00   1.1186399550662447e+00   1.1112413183230447e+00   1.0915301525643253e+00   1.0863343347722962e+00   1.0543477781369017e+00   1.0532793525636224e+00   1.0214235895656469e+00   1.0239549222000734e+00   1.0026943149438063e+00   1.0051086550839272e+00   1.0039850717940801e+00   1.0005178049606038e+00   1.0256917559912764e+00   1.0117763035661025e+00   1.0623328159468737e+00   1.0376927721921891e+00   1.1039012690291439e+00   1.0737315289319895e+00   1.1317588052053369e+00   1.1105461779473307e+00   1.1392099322764933e+00   1.1377785885081286e+00   1.0868177826952352e+00   1.1039393320021167e+00   1.0449688232221754e+00   1.0478717714719057e+00   1.0733078730856549e+00   1.0636311216499190e+00   1.1038765274484637e+00   1.0953632126065322e+00   1.0989947251457799e+00   1.0973358565598128e+00   1.0701882960620324e+00   1.0725088350934611e+00   1.0340346004204726e+00   1.0408892937742182e+00   1.0085177263597134e+00   1.0163864454533236e+00   1.0061635877706381e+00   1.0087848425888093e+00   1.0182190902576578e+00   1.0251782295712748e+00   1.0164075932481309e+00   1.0171869231638113e+00   1.0288373315671764e+00   1.0228969612239434e+00   1.0497072140146013e+00   1.0357755678164808e+00   1.0742336033127229e+00   1.0571034096254435e+00   1.0927451843586882e+00   1.0779886864288448e+00   1.0479785909964545e+00   1.0479785909964541e+00   1.0185947006548417e+00   1.0090200265915892e+00   1.0631471569868944e+00   1.0260537001011967e+00   1.0776297007019107e+00   1.0642988863003211e+00   1.0674973597808026e+00   1.0566155564499391e+00   1.0436814828993559e+00   1.0365621364726139e+00   1.0222636156037859e+00   1.0188432553448621e+00   1.0079491650101009e+00   1.0073709523519998e+00   1.0009700654726543e+00   1.0016772660374718e+00   1.0007819157645064e+00   1.0001313017532467e+00   1.0079517648743976e+00   1.0026044692289409e+00   1.0237806565689431e+00   1.0109305609992456e+00   1.0477916069348410e+00   1.0269048242237062e+00   1.0755290816151333e+00   1.0509801520402609e+00   1.0969572969543773e+00   1.0754438247665847e+00   1.0529255517845482e+00   1.0497383260411459e+00   1.0173296218626611e+00   1.0100022320904711e+00   1.0575429909745653e+00   1.0236882388017605e+00   1.0733078070017634e+00   1.0636311955260489e+00   1.0656585719579812e+00   1.0598648063091869e+00   1.0447228173950416e+00   1.0431121747963386e+00   1.0260549218965094e+00   1.0280079167290621e+00   1.0169040094125765e+00   1.0196387398254882e+00   1.0191951783437538e+00   1.0201958178169317e+00   1.0232213062106061e+00   1.0248770598311316e+00   1.0199822281888637e+00   1.0201513691642792e+00   1.0237675615082198e+00   1.0225065813686940e+00   1.0329604776223658e+00   1.0311947774369996e+00   1.0451765071112682e+00   1.0439277925938244e+00   1.0468328727691905e+00   1.0482139229969722e+00   1.0090200265915885e+00   1.0185947006548406e+00   1.0040051117998718e+00   1.0040051117998718e+00   1.0152051620585603e+00   1.0093082550123484e+00   1.0381345069176056e+00   1.0417205256484789e+00   1.0303185552892371e+00   1.0359815909572614e+00   1.0154996544543771e+00   1.0200004781622274e+00   1.0057164229533451e+00   1.0081353835840574e+00   1.0014826382942354e+00   1.0020674031143026e+00   1.0004251636410351e+00   1.0003272894059307e+00   1.0004673458559186e+00   1.0004790029772659e+00   1.0020755224781450e+00   1.0019996657818240e+00   1.0077582498906192e+00   1.0068468439753433e+00   1.0191758576900494e+00   1.0173004410528854e+00   1.0345354756036160e+00   1.0328091000761574e+00   1.0405954584790944e+00   1.0415173203919257e+00   1.0083000946404050e+00   1.0165145514983229e+00   1.0041784347352838e+00   1.0038328099096729e+00   1.0173301565425685e+00   1.0100024549693245e+00   1.0449686287651776e+00   1.0478716923419942e+00   1.0416924434520300e+00   1.0464188920269306e+00   1.0297384635402913e+00   1.0334182241937580e+00   1.0220290328504591e+00   1.0236769359240552e+00   1.0199953360520713e+00   1.0193008047473686e+00   1.0261077494144224e+00   1.0227533314938042e+00   1.0173593629794007e+00   1.0149092891804421e+00   1.0189038548938438e+00   1.0148990854653424e+00   1.0303588261149121e+00   1.0277781105343737e+00   1.0489533844117644e+00   1.0514234472124628e+00   1.0682747291105530e+00   1.0763075139433469e+00   1.0721804774445371e+00   1.0841412051372190e+00   1.0260537001011965e+00   1.0631471569868933e+00   1.0093082550123491e+00   1.0152051620585618e+00   1.0549182594333910e+00   1.0549182594333917e+00   1.0849467673234967e+00   1.1089789738162859e+00   1.0593659808109885e+00   1.0879142871176992e+00   1.0326583932474569e+00   1.0575585093320192e+00   1.0140298253724367e+00   1.0298882223494763e+00   1.0035219562869893e+00   1.0105354469919421e+00   1.0000323976188961e+00   1.0011601567628674e+00   1.0020966827273690e+00   1.0012235380270011e+00   1.0096536668769578e+00   1.0102179810278145e+00   1.0237464554919391e+00   1.0280001046021470e+00   1.0441356464320661e+00   1.0532789380074437e+00   1.0660462131098380e+00   1.0800103590850330e+00   1.0733474814148189e+00   1.0894361190152881e+00   1.0285668118969986e+00   1.0691544196616809e+00   1.0083002582643885e+00   1.0165150671059364e+00   1.0529259161859541e+00   1.0497386515814728e+00   1.0868179747014934e+00   1.1039401386568830e+00   1.0642177691569736e+00   1.0850444004376889e+00   1.0394005317955319e+00   1.0568335241571487e+00   1.0233695739041346e+00   1.0312991604898349e+00   1.0146342395730301e+00   1.0144993976069301e+00   1.0229357474712817e+00   1.0145658888951550e+00   1.0036439334548104e+00   1.0003937516935770e+00   1.0154434265841594e+00   1.0057392091701332e+00   1.0470550414982225e+00   1.0389692428700172e+00   1.0858720587795783e+00   1.0840651201452047e+00   1.1141998395797104e+00   1.1180850187071139e+00   1.1078192234692481e+00   1.1201340432985494e+00   1.0642988863003215e+00   1.0776297007019102e+00   1.0417205256484809e+00   1.0381345069176078e+00   1.1089789738162850e+00   1.0849467673234972e+00   1.1563053596874013e+00   1.1563053596873996e+00   1.1303180323614199e+00   1.1550340068302767e+00   1.0894175052151152e+00   1.1256665546919196e+00   1.0471187505415198e+00   1.0772115364813382e+00   1.0156584235611390e+00   1.0331746878934851e+00   1.0015682389596208e+00   1.0066099782327189e+00   1.0070945004735634e+00   1.0048085918454452e+00   1.0302662766482071e+00   1.0276134319171852e+00   1.0656583103577464e+00   1.0675842789002448e+00   1.1041684779843739e+00   1.1117972355876884e+00   1.1308785400446584e+00   1.1419632501945878e+00   1.1216788065300982e+00   1.1387274392939979e+00   1.0733476246941513e+00   1.0894360374174110e+00   1.0405954174483230e+00   1.0415172001934918e+00   1.0969580546725828e+00   1.0754439405024701e+00   1.1392111689375246e+00   1.1377798789229998e+00   1.1128637633460556e+00   1.1322714067894852e+00   1.0711570501203018e+00   1.0992541602465140e+00   1.0319223277335263e+00   1.0503111298878010e+00   1.0035527703242135e+00   1.0093257348493736e+00   1.0110628672331692e+00   1.0000000000000000e+00   1.0000000000000000e+00   1.0000000000000000e+00   1.0148097469134680e+00   1.0000000000000000e+00   1.0687892329578081e+00   1.0549742623544287e+00   1.1189213870480248e+00   1.1117228534842105e+00   1.1376300543790148e+00   1.1379126392125327e+00   1.1112413183230396e+00   1.1186399550662380e+00   1.0566155564499402e+00   1.0674973597808006e+00   1.0359815909572645e+00   1.0303185552892404e+00   1.0879142871176986e+00   1.0593659808109903e+00   1.1550340068302747e+00   1.1303180323614175e+00   1.1788076762621880e+00   1.1788076762621877e+00   1.1527514426042174e+00   1.1794252519441855e+00   1.0954829926397023e+00   1.1319761687288832e+00   1.0388275398151148e+00   1.0676070159470212e+00   1.0084642128166508e+00   1.0194719054211789e+00   1.0182127888923760e+00   1.0142882904465294e+00   1.0611369581914558e+00   1.0533508197437280e+00   1.1162125116212882e+00   1.1126563367484488e+00   1.1590914110720523e+00   1.1609395851340067e+00   1.1675986833041323e+00   1.1740811012471988e+00   1.1308785491046798e+00   1.1419632404730278e+00   1.0660460855024767e+00   1.0800103714397749e+00   1.0345355923279427e+00   1.0328090594458053e+00   1.0755293567665380e+00   1.0509802810343962e+00   1.1317587001624261e+00   1.1105464352852723e+00   1.1449328767916582e+00   1.1462510782009214e+00   1.1076676236031491e+00   1.1325412016727292e+00   1.0490421429130636e+00   1.0759284590486367e+00   1.0000000000000000e+00   1.0100149974271961e+00   1.0000000000000000e+00   1.0000000000000000e+00   1.0000000000000000e+00   1.0000000000000000e+00   1.0203159321024113e+00   1.0005197930887664e+00   1.0868183030721128e+00   1.0704321743247689e+00   1.1294199517063404e+00   1.1196765229060002e+00   1.1273017582108456e+00   1.1251312257349664e+00   1.0863343347722914e+00   1.0915301525643217e+00   1.0365621364726125e+00   1.0436814828993530e+00   1.0200004781622294e+00   1.0154996544543780e+00   1.0575585093320194e+00   1.0326583932474576e+00   1.1256665546919173e+00   1.0894175052151129e+00   1.1794252519441850e+00   1.1527514426042158e+00   1.1866436888321377e+00   1.1866436888321377e+00   1.1412937694028098e+00   1.1677120513532424e+00   1.0711932004636358e+00   1.1041778586687800e+00   1.0227482343132941e+00   1.0387859715071159e+00   1.0363033578991743e+00   1.0298164236888849e+00   1.0947061565926255e+00   1.0823522778161796e+00   1.1535390391331997e+00   1.1454489365421370e+00   1.1787917923231555e+00   1.1758441942955817e+00   1.1590914133937904e+00   1.1609395866872734e+00   1.1041684718162068e+00   1.1117972404281775e+00   1.0441356550743999e+00   1.0532789368141955e+00   1.0191758733795617e+00   1.0173004481266872e+00   1.0477916108832257e+00   1.0269048249476933e+00   1.1039013111808771e+00   1.0737315787585342e+00   1.1417993243603284e+00   1.1224255417092490e+00   1.1273589596102833e+00   1.1351861903159561e+00   1.0719936201161337e+00   1.0972939150919712e+00   1.0000000000000000e+00   1.0200805773682768e+00   1.0000000000000000e+00   1.0000000000000000e+00   1.0000000000000000e+00   1.0114272884874473e+00   1.0284815508310448e+00   1.0064872966957035e+00   1.0893081660949395e+00   1.0733586875259313e+00   1.1100292691663811e+00   1.0988744932889667e+00   1.0915986279134196e+00   1.0865265045849319e+00   1.0532793525636199e+00   1.0543477781368986e+00   1.0188432553448616e+00   1.0222636156037850e+00   1.0081353835840585e+00   1.0057164229533457e+00   1.0298882223494761e+00   1.0140298253724374e+00   1.0772115364813351e+00   1.0471187505415180e+00   1.1319761687288799e+00   1.0954829926396981e+00   1.1677120513532429e+00   1.1412937694028082e+00   1.1632026903580912e+00   1.1632026903580914e+00   1.1096440652921937e+00   1.1364962059405754e+00   1.0415458736812728e+00   1.0643193405081353e+00   1.0534307023793299e+00   1.0455608715879654e+00   1.1156945137709200e+00   1.0992146094588513e+00   1.1563971958840438e+00   1.1450476477571097e+00   1.1535390423549192e+00   1.1454489402489361e+00   1.1162125152610232e+00   1.1126563416659190e+00   1.0656583150896730e+00   1.0675842828823248e+00   1.0237464597583164e+00   1.0280001085002186e+00   1.0077582526484541e+00   1.0068468457542865e+00   1.0237806715562305e+00   1.0109305643106432e+00   1.0623328340822913e+00   1.0376927874427677e+00   1.1023108723128963e+00   1.0747252179023006e+00   1.1147416007274378e+00   1.1018029802623901e+00   1.0894602475505679e+00   1.0986802127769217e+00   1.0047588228848578e+00   1.0366670220298881e+00   1.0000000000000000e+00   1.0000000000000000e+00   1.0000000000000000e+00   1.0503798971864398e+00   1.0287250768903606e+00   1.0028942498226212e+00   1.0655278362762477e+00   1.0515851059199519e+00   1.0662961307838330e+00   1.0535795033585751e+00   1.0468857446278801e+00   1.0391322616370990e+00   1.0239549222000714e+00   1.0214235895656449e+00   1.0073709523519996e+00   1.0079491650101002e+00   1.0020674031143033e+00   1.0014826382942357e+00   1.0105354469919425e+00