<?xml version="1.0"?>
<VTKFile type="UnstructuredGrid"  version="0.1"  >
<UnstructuredGrid>
<Piece  NumberOfPoints="961" NumberOfCells="1800">
<Points>
<DataArray  type="Float64"  NumberOfComponents="3"  format="ascii">0 0 0  0.03333333333333333 0 0  0.06666666666666667 0 0  0.1 0 0  0.1333333333333333 0 0  0.1666666666666667 0 0  0.2 0 0  0.2333333333333333 0 0  0.2666666666666667 0 0  0.3 0 0  0.3333333333333334 0 0  0.3666666666666666 0 0  0.4 0 0  0.4333333333333333 0 0  0.4666666666666667 0 0  0.5 0 0  0.5333333333333333 0 0  0.5666666666666667 0 0  0.6 0 0  0.6333333333333333 0 0  0.6666666666666666 0 0  0.7 0 0  0.7333333333333333 0 0  0.7666666666666667 0 0  0.8 0 0  0.8333333333333334 0 0  0.8666666666666666 0 0  0.8999999999999999 0 0  0.9333333333333333 0 0  0.9666666666666667 0 0  1 0 0  0 0.03333333333333333 0  0.03924041319188812 0.03924041319188812 0  0.07381361976794025 0.03732940329320146 0  0.1062042923249471 0.03413503332150863 0  0.1380503213791726 0.03120702253210325 0  0.1698987584306673 0.02889462713602845 0  0.2018948328697342 0.02732988655181163 0  0.2340257441438991 0.02660599166812813 0  0.2662049526509458 0.026791364148829 0  0.2983230693503146 0.02791935548669675 0  0.3302971162030545 0.03000371675050244 0  0.362118365730015 0.0330860804919248 0  0.3939318393732357 0.03729069707118535 0  0.4262617929607643 0.04281328034487433 0  0.4606171016075766 0.049404310996726 0  0.4995294780706749 0.05359238426990554 0  0.5390401450393313 0.04946324799050681 0  0.5737194387572745 0.0427151287613514 0  0.606155468708114 0.0371553135369895 0  0.6380235120419256 0.03296024638726098 0  0.6698839449330358 0.0299028226987805 0  0.7018873700393941 0.02785187850225384 0  0.734023533717138 0.02676346405072079 0  0.7662073925403202 0.02661996703436958 0  0.7983307809636303 0.02738263785004894 0  0.8303122279064238 0.02897894399734797 0  0.8621455824981186 0.03131290651600269 0  0.8939813080976673 0.0342453102308949 0  0.9263571253403842 0.03739933590950436 0  0.960819496690164 0.03918050327356242 0  1 0.03333333333333333 0  0 0.06666666666666667 0  0.03732940329320145 0.07381361976794022 0  0.07235366038592481 0.07235366038592481 0  0.105390678923835 0.06765594076002478 0  0.1375412812383209 0.06251735172336977 0  0.1695272159888805 0.0580993410150322 0  0.2016690425105474 0.05496123919365887 0  0.2340145195867384 0.05345429547618673 0  0.266436823520074 0.0537924656338425 0  0.298746259362183 0.05602748979307049 0  0.3308244150396907 0.06007508049883269 0  0.3627241606958931 0.06579189256161386 0  0.3947560587111409 0.07298206271948864 0  0.4276058560946492 0.08116111860115069 0  0.4623469161247786 0.08881033834972625 0  0.4995582989649677 0.0924365734507675 0  0.5370759645854419 0.08900947721447909 0  0.5722114915298718 0.08125505123392029 0  0.605309768310324 0.07294294319028309 0  0.6374946478139176 0.06568308671110361 0  0.6695007858613657 0.05995153022893955 0  0.7016555554766005 0.05592918462008648 0  0.7340105118071758 0.05374708648300855 0  0.7664412744071873 0.05347246725853726 0  0.7987602060530766 0.05503182318507649 0  0.8308513409312568 0.05819429219772061 0  0.862771346068774 0.06259726081836686 0  0.8948375807030424 0.0676698745000042 0  0.9277486167781326 0.07225138320877575 0  0.9626006640858767 0.07364287463398224 0  1 0.06666666666666667 0  0 0.1 0  0.03413503332150863 0.1062042923249471 0  0.0676559407600248 0.105390678923835 0  0.1005365953149134 0.1005365953149134 0  0.1331978874750574 0.09417094232582364 0  0.1660846330660644 0.08802475426910625 0  0.1994600804541785 0.08329879751582915 0  0.2333132850356011 0.08088251709097218 0  0.2673422770435342 0.08132457542282598 0  0.3011112814086591 0.08466995853880599 0  0.3343461417638909 0.09050351455401792 0  0.36705794203847 0.09816541410647409 0  0.3995179244119823 0.1068251314244515 0  0.4321804270740228 0.1153313370717055 0  0.4655172041327182 0.1219808143604973 0  0.4996395879630584 0.1246762511938599 0  0.5338973802084864 0.1221868567276611 0  0.5675063566668861 0.1155601131888913 0  0.6004443619793004 0.1069527299685331 0  0.6331419153823005 0.09817159075560815 0  0.6660518879575613 0.09042738599802061 0  0.6994430709480725 0.08457407450634022 0  0.7333082127553494 0.08127002129818088 0  0.7673479871192312 0.0808974392678216 0  0.8011289213778215 0.08335599604561088 0  0.8343794960865814 0.08806450543773631 0  0.8671144635819406 0.09413371887778667 0  0.8996105578354838 0.1003894421503291 0  0.9323301254891945 0.1051624192846474 0  0.9657546897635572 0.1060186918919657 0  1 0.1 0  0 0.1333333333333333 0  0.03120702253210328 0.1380503213791726 0  0.06251735172336981 0.137541281238321 0  0.09417094232582369 0.1331978874750574 0  0.1265895034431627 0.1265895034431627 0  0.1602267928849675 0.1193032428438593 0  0.19537579271919 0.11301626842059 0  0.2318952570532564 0.1094675169200066 0  0.2689459198310841 0.1099528198501214 0  0.3052864047023816 0.1144702920356688 0  0.3401843965752939 0.1218329449805283 0  0.3735743120615753 0.1305497896119943 0  0.405780726346822 0.1392748308116943 0  0.4372720431309227 0.146819788630437 0  0.4684925610287782 0.1520656817289057 0  0.4997217287054936 0.1540380159008357 0  0.5310123179237516 0.1522689202312538 0  0.5623867005623535 0.1471280947662514 0  0.5940857176956252 0.139567390220263 0  0.6265354075584083 0.1307356744829594 0  0.6601940624201379 0.1218787300520053 0  0.6953584085249132 0.1144158794574885 0  0.7318900620305462 0.109895937854436 0  0.7689519378704721 0.109472986511407 0  0.805304566766703 0.1130228141637812 0  0.8402178188321033 0.1192157726753536 0  0.8736289577979515 0.1263710421786946 0  0.9058662811055254 0.1328855364015643 0  0.9374027391708878 0.1372286539198754 0  0.9686870934787221 0.1378544174952967 0  0.9999999999999999 0.1333333333333333 0  0 0.1666666666666667 0  0.02889462713602846 0.1698987584306673 0  0.05809934101503224 0.1695272159888804 0  0.0880247542691063 0.1660846330660644 0  0.1193032428438594 0.1602267928849674 0  0.1528067714869029 0.1528067714869027 0  0.1894858629443466 0.1452940221563636 0  0.229630210817571 0.1403100762741798 0  0.2713708854704135 0.1407642196464959 0  0.3111555028873724 0.1465404057272255 0  0.3474795470658131 0.154864982396118 0  0.3807418260223116 0.1634162487935194 0  0.411871125710258 0.1709571010453441 0  0.4417102638546911 0.1768463717765922 0  0.4708828763279598 0.1806512928272548 0  0.4998060534528296 0.1820401687863994 0  0.5287563826863783 0.180858367802231 0  0.5580040497349433 0.1772099130861403 0  0.5879608107186182 0.1713936715857581 0  0.6192614935552682 0.1638222943037445 0  0.6527807723641853 0.1551303930722078 0  0.689471680243641 0.1466027119993512 0  0.7296259878001169 0.1407162411015894 0  0.7713761275531476 0.140294920580723 0  0.8111706201061938 0.1451756274003217 0  0.8475063615717047 0.1524936383784013 0  0.8807842272930387 0.1597821811391815 0  0.9119354945437548 0.16562050389621 0  0.9418057077919169 0.1691486590584672 0  0.9710210559979643 0.1696877720885251 0  1 0.1666666666666667 0  0 0.2 0  0.02732988655181165 0.2018948328697341 0  0.0549612391936589 0.2016690425105473 0  0.08329879751582918 0.1994600804541784 0  0.1130162684205901 0.1953757927191899 0  0.1452940221563637 0.1894858629443464 0  0.182184087407667 0.1821840874076668 0  0.2262252570900578 0.1758221159297875 0  0.2748416874022629 0.176107329072377 0  0.3182445463031805 0.182781867926334 0  0.3548106414876488 0.1905229534186146 0  0.3869556305168289 0.197179263027923 0  0.4166108989779599 0.202397995243356 0  0.4449182845179487 0.2061857497370959 0  0.4725439495335028 0.2085360491781543 0  0.4998950123599977 0.2094021689176518 0  0.5272565233570444 0.2087493760929834 0  0.5549116587243168 0.2065888398287761 0  0.5832663070003586 0.2029476298328497 0  0.6129955856320967 0.1978092119104476 0  0.6452813482201112 0.1911205770546213 0  0.6821771395839141 0.1831525236247201 0  0.7262233264891746 0.1761311890105191 0  0.7748448806843493 0.1757226679103817 0  0.8182526663673717 0.1817473334639076 0  0.8548243725135172 0.1888293798365938 0  0.886977185799953 0.1946954332068692 0  0.9166440039380581 0.1988710786079546 0  0.9449681768070225 0.2012397939390698 0  0.9726173621465879 0.2016692190327671 0  1 0.2 0  0 0.2333333333333333 0  0.02660599166812814 0.234025744143899 0  0.05345429547618674 0.2340145195867382 0  0.08088251709097219 0.233313285035601 0  0.1094675169200066 0.2318952570532562 0  0.1403100762741798 0.2296302108175706 0  0.1758221159297876 0.2262252570900576 0  0.2217737786155632 0.221773778615563 0  0.278861171621576 0.2213346888589933 0  0.3242802673682282 0.2255854438459745 0  0.3597095899687937 0.2292695918315985 0  0.3905320496766746 0.2319521158123608 0  0.4191067607792581 0.2338989375037406 0  0.4465290933098858 0.2352712676077184 0  0.4733765880732215 0.2361313624627909 0  0.4999885113779492 0.236491282883263 0  0.5266026844790689 0.2363469090594723 0  0.5534563146658115 0.2356924396293033 0  0.5808875340979195 0.2345099363097513 0  0.6094736956306079 0.2327353618744683 0  0.6403159980592543 0.2302005451016783 0  0.6758266568017283 0.2265712890072391 0  0.7217759977614236 0.2218785494973834 0  0.7788606178791491 0.2211393805427969 0  0.8242773315219385 0.2251551193062428 0  0.859705079325085 0.2286238724370205 0  0.8905270134721118 0.2310480621197216 0  0.9191025607277296 0.2326520128742555 0  0.9465275327392403 0.2335587255889474 0  0.9733800329644784 0.2337926074578849 0  1 0.2333333333333333 0  0 0.2666666666666667 0  0.02679136414882898 0.2662049526509456 0  0.05379246563384248 0.2664368235200738 0  0.08132457542282592 0.2673422770435339 0  0.1099528198501213 0.2689459198310836 0  0.1407642196464959 0.2713708854704131 0  0.176107329072377 0.2748416874022624 0  0.2213346888589935 0.2788611716215756 0  0.2781266839108982 0.278126683910898 0  0.3238843852076522 0.2734363496345514 0  0.3593080784578708 0.269807898981946 0  0.3901373106870911 0.2672727783945479 0  0.418773230177293 0.2654968800079721 0  0.4463077841952076 0.2
[...]
<CellData  Scalars="q"> 
<DataArray  type="Float64"  Name="q"  format="ascii">1.0099287075897381e+00   1.0099287075897379e+00   1.0000000000000000e+00   1.0000000000000000e+00   1.0000000000000000e+00   1.0000000000000000e+00   1.0000000000000000e+00   1.0000000000000000e+00   1.0018824789354182e+00   1.0000000000000000e+00   1.0137694629934284e+00   1.0042515736487014e+00   1.0217858846220740e+00   1.0155406756347696e+00   1.0215664794012498e+00   1.0199093282553719e+00   1.0129361303948650e+00   1.0148632577342485e+00   1.0002795229334263e+00   1.0029501905115414e+00   1.0000000000000000e+00   1.0000000000000000e+00   1.0000000000000000e+00   1.0000000000000000e+00   1.0074847641536961e+00   1.0000000000000000e+00   1.0393651116596909e+00   1.0004038881518911e+00   1.0730950348247539e+00   1.0271431045961932e+00   1.0588159626865665e+00   1.0413140359957231e+00   1.0195486985755413e+00   1.0162881037024971e+00   1.0000000000000000e+00   1.0000000000000000e+00   1.0000000000000000e+00   1.0000000000000000e+00   1.0000000000000000e+00   1.0000000000000000e+00   1.0096377315205802e+00   1.0000000000000000e+00   1.0199106261098494e+00   1.0124814049425723e+00   1.0225836801179509e+00   1.0195132964449081e+00   1.0165107993043632e+00   1.0172257992531475e+00   1.0051403992273378e+00   1.0072752982834310e+00   1.0000000000000000e+00   1.0000000000000000e+00   1.0000000000000000e+00   1.0000000000000000e+00   1.0000000000000000e+00   1.0000000000000000e+00   1.0145391252560718e+00   1.0000000000000000e+00   1.0025561399706384e+00   1.0165337941020736e+00   1.0000000000000000e+00   1.0000000000000000e+00   1.0006342615280177e+00   1.0006342615280177e+00   1.0000000000000000e+00   1.0119274803293143e+00   1.0000000000000000e+00   1.0096198631968534e+00   1.0000000000000000e+00   1.0070480815905338e+00   1.0059559063143531e+00   1.0089386236457700e+00   1.0142461490439663e+00   1.0134408290460986e+00   1.0168107027181628e+00   1.0164021723915533e+00   1.0123762780585861e+00   1.0155751242875111e+00   1.0045108231931570e+00   1.0127777658701309e+00   1.0000000000000000e+00   1.0122366179408682e+00   1.0000000000000000e+00   1.0164539137186279e+00   1.0035159156970190e+00   1.0221607329711568e+00   1.0018039485660577e+00   1.0200403197879349e+00   1.0000000000000000e+00   1.0035256368712822e+00   1.0131788100522994e+00   1.0036359417938610e+00   1.0159104943070165e+00   1.0242743111041230e+00   1.0029042466044622e+00   1.0274876698448736e+00   1.0000000000000000e+00   1.0162048197885636e+00   1.0000000000000000e+00   1.0082004837663323e+00   1.0026888384134478e+00   1.0076257593743689e+00   1.0121241738371909e+00   1.0118665178669506e+00   1.0166750755098084e+00   1.0158369890899266e+00   1.0140430871180770e+00   1.0161728891563004e+00   1.0068765863098432e+00   1.0135758312762171e+00   1.0002615465632545e+00   1.0114160031132120e+00   1.0000000000000000e+00   1.0116432534345088e+00   1.0000000000000000e+00   1.0113725421028157e+00   1.0006113585498324e+00   1.0037479301493493e+00   1.0145391252802116e+00   1.0000000000000000e+00   1.0000000000000000e+00   1.0000000000000000e+00   1.0119274803293143e+00   1.0000000000000000e+00   1.0428373900952776e+00   1.0428373900952774e+00   1.0445254436943332e+00   1.0573409709978336e+00   1.0344102045909178e+00   1.0515205905436296e+00   1.0241201650087834e+00   1.0363365993003040e+00   1.0183048260992009e+00   1.0232178254955899e+00   1.0178288558700479e+00   1.0184391332477869e+00   1.0226952312622219e+00   1.0242817656618446e+00   1.0328289733471232e+00   1.0392439435474832e+00   1.0467047451066700e+00   1.0584099710516899e+00   1.0589494601738443e+00   1.0735161685902659e+00   1.0590248286341455e+00   1.0739171600301716e+00   1.0378232085232166e+00   1.0515186778089507e+00   1.0077348053730786e+00   1.0167516237322518e+00   1.0134553147618863e+00   1.0070849446007264e+00   1.0532783025812960e+00   1.0445340963019505e+00   1.0710269665036678e+00   1.0789628334981682e+00   1.0601644236244805e+00   1.0815637656318722e+00   1.0415523409382714e+00   1.0645144948368876e+00   1.0265875458966862e+00   1.0423163600874978e+00   1.0187282307767775e+00   1.0252876016469723e+00   1.0174400010366298e+00   1.0183775736092420e+00   1.0212517610238734e+00   1.0223311923763836e+00   1.0287351902869228e+00   1.0341317196298920e+00   1.0373421426179690e+00   1.0476508083576441e+00   1.0408622830571594e+00   1.0539246926819492e+00   1.0300810793989945e+00   1.0430764735861497e+00   1.0000000000000000e+00   1.0113725421019075e+00   1.0000000000000000e+00   1.0000000000000000e+00   1.0000000000000000e+00   1.0000000000000000e+00   1.0096198631968532e+00   1.0000000000000000e+00   1.0573409709978336e+00   1.0445254436943330e+00   1.0797226987507269e+00   1.0797226987507269e+00   1.0737998501667512e+00   1.0888731961913098e+00   1.0498077431439876e+00   1.0685420441011519e+00   1.0273976314621169e+00   1.0386106868313030e+00   1.0232100732807012e+00   1.0237741252182107e+00   1.0410112652624999e+00   1.0375130900412886e+00   1.0700716678389481e+00   1.0700749469409767e+00   1.0947130744738292e+00   1.0998651266821919e+00   1.1013403830364326e+00   1.1097471273702466e+00   1.0822492325335209e+00   1.0928319734807395e+00   1.0424896326425952e+00   1.0546260806875223e+00   1.0086881221853345e+00   1.0157685310566436e+00   1.0152918924271874e+00   1.0066083236268573e+00   1.0576358511712662e+00   1.0390990464366152e+00   1.0964896438909864e+00   1.0853871854361414e+00   1.1077838056727125e+00   1.1141102313987910e+00   1.0904841649076502e+00   1.1111629838680015e+00   1.0583365973405250e+00   1.0814752254959439e+00   1.0303994019348597e+00   1.0444326064447120e+00   1.0220608374162290e+00   1.0241916912628439e+00   1.0355521894826480e+00   1.0328237480723650e+00   1.0586841782776062e+00   1.0592153342886554e+00   1.0748007073871677e+00   1.0808444598366100e+00   1.0703447336627874e+00   1.0806470942966717e+00   1.0408622830815100e+00   1.0539246927066754e+00   1.0000000000000000e+00   1.0116432534667403e+00   1.0000000000000000e+00   1.0000000000000000e+00   1.0000000000000000e+00   1.0018824789354179e+00   1.0070480815905336e+00   1.0000000000000000e+00   1.0515205905436296e+00   1.0344102045909176e+00   1.0888731961913103e+00   1.0737998501667518e+00   1.0987707977201535e+00   1.0987707977201540e+00   1.0763647519568806e+00   1.0902446139384583e+00   1.0402303651038098e+00   1.0543321592248873e+00   1.0294411049416290e+00   1.0289558752505088e+00   1.0576050964422457e+00   1.0479582195811508e+00   1.0956168890463238e+00   1.0886826388223496e+00   1.1151344743523550e+00   1.1126644667071042e+00   1.1059633416065189e+00   1.1069218001215035e+00   1.0732948684660095e+00   1.0777765314657444e+00   1.0325978640308675e+00   1.0396585351532899e+00   1.0053881247979641e+00   1.0095932427709231e+00   1.0087221573572287e+00   1.0026422214064259e+00   1.0419615344799793e+00   1.0237932349498104e+00   1.0865571655774888e+00   1.0633791825809376e+00   1.1187596107631488e+00   1.1027826163236356e+00   1.1199786863608430e+00   1.1211715066713768e+00   1.0894324854216189e+00   1.1059424467620813e+00   1.0457378323894182e+00   1.0627168267169904e+00   1.0277963614473005e+00   1.0298775842054011e+00   1.0493068588721717e+00   1.0415853080356394e+00   1.0802969774223929e+00   1.0754947516439266e+00   1.0918585480723395e+00   1.0928105709329503e+00   1.0748007074142241e+00   1.0808444598762603e+00   1.0373421426566141e+00   1.0476508083979947e+00   1.0002615465895019e+00   1.0114160031413053e+00   1.0000000000000000e+00   1.0000000000000000e+00   1.0042515736487010e+00   1.0137694629934284e+00   1.0089386236457696e+00   1.0059559063143528e+00   1.0363365993003038e+00   1.0241201650087830e+00   1.0685420441011528e+00   1.0498077431439878e+00   1.0902446139384585e+00   1.0763647519568817e+00   1.0849018574342328e+00   1.0849018574342328e+00   1.0447977851732215e+00   1.0539224368547202e+00   1.0266077864990897e+00   1.0214928094850413e+00   1.0583411484166798e+00   1.0415002209328192e+00   1.0914373169917209e+00   1.0771246357612372e+00   1.0961852696779542e+00   1.0864929107772903e+00   1.0765304044002502e+00   1.0707445182910877e+00   1.0461964036964715e+00   1.0448988224661306e+00   1.0182549668076315e+00   1.0204474591937482e+00   1.0021802730287364e+00   1.0043338632657939e+00   1.0033468052263035e+00   1.0004186064393543e+00   1.0219778862512090e+00   1.0101062755114256e+00   1.0528017765666091e+00   1.0319151675836549e+00   1.0856255458716777e+00   1.0608464015293086e+00   1.1054388057884579e+00   1.0875504860542795e+00   1.0969583062929058e+00   1.0956791205618726e+00   1.0508807766653014e+00   1.0612913403265891e+00   1.0247496903159179e+00   1.0223649856732528e+00   1.0503632463895716e+00   1.0359266140646413e+00   1.0789062177165951e+00   1.0678690946949787e+00   1.0802969773998838e+00   1.0754947517698652e+00   1.0586841783406451e+00   1.0592153342932973e+00   1.0287351903210875e+00   1.0341317196767128e+00   1.0068765863202915e+00   1.0135758312907583e+00   1.0051403992148076e+00   1.0072752982738380e+00   1.0155406756347694e+00   1.0217858846220740e+00   1.0134408290460981e+00   1.0142461490439660e+00   1.0232178254955899e+00   1.0183048260992007e+00   1.0386106868313032e+00   1.0273976314621167e+00   1.0543321592248875e+00   1.0402303651038096e+00   1.0539224368547195e+00   1.0447977851732204e+00   1.0247956972549963e+00   1.0247956972549956e+00   1.0074477931643164e+00   1.0041236511450031e+00   1.0325361506813517e+00   1.0111492757169505e+00   1.0535758516096245e+00   1.0363757563265446e+00   1.0508959784164857e+00   1.0392844720331427e+00   1.0350494034320765e+00   1.0278795664914981e+00   1.0185314199741966e+00   1.0151480648115099e+00   1.0067567586572159e+00   1.0061372117614304e+00   1.0008266851940451e+00   1.0014174281587962e+00   1.0006779411403000e+00   1.0001033191357185e+00   1.0067329890087109e+00   1.0021595074377547e+00   1.0195333611266648e+00   1.0087868712114882e+00   1.0375449575483742e+00   1.0206768101624852e+00   1.0555061715167993e+00   1.0358654672470646e+00   1.0571466253134831e+00   1.0435236326671258e+00   1.0279508592712887e+00   1.0261216876138195e+00   1.0068530994726130e+00   1.0047704313394499e+00   1.0290840856975751e+00   1.0098133760054309e+00   1.0503632458777048e+00   1.0359266151737203e+00   1.0493068590317018e+00   1.0415853072243324e+00   1.0355521895018271e+00   1.0328237481959643e+00   1.0212517610564593e+00   1.0223311924208949e+00   1.0140430871206503e+00   1.0161728891703072e+00   1.0165107992877176e+00   1.0172257992467695e+00   1.0199093282553717e+00   1.0215664794012498e+00   1.0164021723915528e+00   1.0168107027181628e+00   1.0184391332477862e+00   1.0178288558700470e+00   1.0237741252182095e+00   1.0232100732806999e+00   1.0289558752505079e+00   1.0294411049416274e+00   1.0214928094850397e+00   1.0266077864990881e+00   1.0041236511450029e+00   1.0074477931643160e+00   1.0017089966798274e+00   1.0017089966798272e+00   1.0055933765600820e+00   1.0044099370455379e+00   1.0200146463265163e+00   1.0186379591380728e+00   1.0193108983355241e+00   1.0222808493680393e+00   1.0108902605838872e+00   1.0138281266126987e+00   1.0042136399539319e+00   1.0059138321678940e+00   1.0011381315459438e+00   1.0015396985568592e+00   1.0003385529866833e+00   1.0002464299239531e+00   1.0003567825772124e+00   1.0003843544885718e+00   1.0015341267151583e+00   1.0015642605834758e+00   1.0055837444955993e+00   1.0051338635362301e+00   1.0131056460367684e+00   1.0123117593854527e+00   1.0211947232669045e+00   1.0211508816880344e+00   1.0176942486386735e+00   1.0219640703213972e+00   1.0037418942793912e+00   1.0062177113461481e+00   1.0018113243787083e+00   1.0016086385185392e+00   1.0068531009815433e+00   1.0047704316953285e+00   1.0247496896592736e+00   1.0223649843397113e+00   1.0277963611584764e+00   1.0298775855593583e+00   1.0220608375409930e+00   1.0241916914729909e+00   1.0174400010762437e+00   1.0183775736948004e+00   1.0166750755280030e+00   1.0158369891287289e+00   1.0225836801160377e+00   1.0195132964557407e+00   1.0148632577342485e+00   1.0129361303948650e+00   1.0155751242875104e+00   1.0123762780585852e+00   1.0242817656618433e+00   1.0226952312622204e+00   1.0375130900412863e+00   1.0410112652624977e+00   1.0479582195811485e+00   1.0576050964422430e+00   1.0415002209328175e+00   1.0583411484166776e+00   1.0111492757169507e+00   1.0325361506813517e+00   1.0044099370455382e+00   1.0055933765600829e+00   1.0294538727821112e+00   1.0294538727821121e+00   1.0501169399328711e+00   1.0651078717428453e+00   1.0423829530360398e+00   1.0651277195153610e+00   1.0254120463637586e+00   1.0454973622665724e+00   1.0113787916064034e+00   1.0245937874470943e+00   1.0029388799989318e+00   1.0088937352286615e+00   1.0000275771477458e+00   1.0009915263890328e+00   1.0017689616644994e+00   1.0010306422933697e+00   1.0080372298167590e+00   1.0086388661294656e+00   1.0191872081319242e+00   1.0232735792523737e+00   1.0339610113806623e+00   1.0428504143643988e+00   1.0464516699507143e+00   1.0606600613298376e+00   1.0423081257001727e+00   1.0622905357740497e+00   1.0125884030309815e+00   1.0362684359528500e+00   1.0037418943357173e+00   1.0062177129042371e+00   1.0279508604044896e+00   1.0261216885825151e+00   1.0508807769181931e+00   1.0612913443871146e+00   1.0457378338264611e+00   1.0627168295059324e+00   1.0303994020630358e+00   1.0444326064447234e+00   1.0187282308724792e+00   1.0252876018489117e+00   1.0121241738742881e+00   1.0118665179003550e+00   1.0199106261210056e+00   1.0124814049578352e+00   1.0029501905115410e+00   1.0002795229334258e+00   1.0127777658701294e+00   1.0045108231931557e+00   1.0392439435474812e+00   1.0328289733471210e+00   1.0700749469409736e+00   1.0700716678389453e+00   1.0886826388223472e+00   1.0956168890463209e+00   1.0771246357612365e+00   1.0914373169917202e+00   1.0363757563265463e+00   1.0535758516096254e+00   1.0186379591380745e+00   1.0200146463265185e+00   1.0651078717428468e+00   1.0501169399328734e+00   1.1092322618550252e+00   1.1092322618550259e+00   1.1033154764932906e+00   1.1240280448708053e+00   1.0736606168552809e+00   1.1032501965337678e+00   1.0397023723830925e+00   1.0650514390450474e+00   1.0132851351968410e+00   1.0281211824176941e+00   1.0012202095875666e+00   1.0054048886391938e+00   1.0059144089739573e+00   1.0038032172225235e+00   1.0256333689923820e+00   1.0232805345225806e+00   1.0550739868799250e+00   1.0570565167439336e+00   1.0851798741568122e+00   1.0930438478058391e+00   1.1018335949054139e+00   1.1148319217584712e+00   1.0874335785019760e+00   1.1057544142701805e+00   1.0423081273992010e+00   1.0622905351977905e+00   1.0176942476681781e+00   1.0219640701921748e+00   1.0571466292423026e+00   1.0435236324876929e+00   1.0969583149267743e+00   1.0956791295514052e+00   1.0894324876330383e+00   1.1059424465312477e+00   1.0583365976759820e+00   1.0814752258427625e+00   1.0265875460445044e+00   1.0423163602877530e+00   1.0026888384298456e+00   1.0076257593914661e+00   1.0096377315230141e+00   1.0000000000000000e+00   1.0000000000000000e+00   1.0000000000000000e+00   1.0122366179408662e+00   1.0000000000000000e+00   1.0584099710516870e+00   1.0467047451066671e+00   1.0998651266821879e+00   1.0947130744738254e+00   1.1126644667071022e+00   1.1151344743523517e+00   1.0864929107772909e+00   1.0961852696779544e+00   1.0392844720331444e+00   1.0508959784164869e+00   1.0222808493680406e+00   1.0193108983355252e+00   1.0651277195153626e+00   1.0423829530360409e+00   1.1240280448708053e+00   1.1033154764932913e+00   1.1475225967345213e+00   1.1475225967345206e+00   1.1274751512006373e+00   1.1493713038356155e+00   1.0802454625311673e+00   1.1106737099041779e+00   1.0321628283776110e+00   1.0559917253280644e+00   1.0062784989085665e+00   1.0150826891413849e+00   1.0145057435631260e+00   1.0106238943653572e+00   1.0511308805429191e+00   1.0438202695061678e+00   1.0978300272796035e+00   1.0944101720797326e+00   1.1327448532456883e+00   1.1350787781527241e+00   1.1367206199744231e+00   1.1444471807870038e+00   1.1018335951230636e+00   1.1148319217534088e+00   1.0464516691874965e+00   1.0606600616392818e+00   1.0211947241966732e+00   1.0211508814244890e+00   1.0555061740877112e+00   1.0358654681222927e+00   1.1054388059596600e+00   1.0875504888193097e+00   1.1199786842042834e+00   1.1211715043409958e+00   1.0904841650634030e+00   1.1111629845398134e+00   1.0415523409813581e+00   1.0645144948413441e+00   1.0000000000000000e+00   1.0082004838038454e+00   1.0000000000000000e+00   1.0000000000000000e+00   1.0000000000000000e+00   1.0000000000000000e+00   1.0164539137186250e+00   1.0000000000000000e+00   1.0735161685902626e+00   1.0589494601738410e+00   1.1097471273702424e+00   1.1013403830364288e+00   1.1069218001215009e+00   1.1059633416065151e+00   1.0707445182910875e+00   1.0765304044002486e+00   1.0278795664914986e+00   1.0350494034320765e+00   1.0138281266126992e+00   1.0108902605838876e+00   1.0454973622665733e+00   1.0254120463637588e+00   1.1032501965337669e+00   1.0736606168552809e+00   1.1493713038356133e+00   1.1274751512006342e+00   1.1555143031614663e+00   1.1555143031614648e+00   1.1168185246060593e+00   1.1384539053343388e+00   1.0564830213328187e+00   1.0835798896537665e+00   1.0158106965551812e+00   1.0283977866674792e+00   1.0270565602294761e+00   1.0204490194204763e+00   1.0768763865506203e+00   1.0643562093288776e+00   1.1277663249805450e+00   1.1190773247672172e+00   1.1499324001248226e+00   1.1467526961728944e+00   1.1327448533132718e+00   1.1350787781962921e+00   1.0851798742098222e+00   1.0930438479238700e+00   1.0339610115705486e+00   1.0428504144392265e+00   1.0131056462084418e+00   1.0123117594986493e+00   1.0375449576126985e+00   1.0206768101870347e+00   1.0856255462494224e+00   1.0608464020268478e+00   1.1187596112973255e+00   1.1027826163249206e+00   1.1077838062592056e+00   1.1141102320414853e+00   1.0601644234949283e+00   1.0815637655411985e+00   1.0000000000000000e+00   1.0162048197328879e+00   1.0000000000000000e+00   1.0000000000000000e+00   1.0000000000000000e+00   1.0074847641536953e+00   1.0221607329711535e+00   1.0035159156970157e+00   1.0739171600301689e+00   1.0590248286341430e+00   1.0928319734807381e+00   1.0822492325335202e+00   1.0777765314657426e+00   1.0732948684660093e+00   1.0448988224661295e+00   1.0461964036964708e+00   1.0151480648115092e+00   1.0185314199741959e+00   1.0059138321678942e+00   1.0042136399539316e+00   1.0245937874470945e+00   1.0113787916064036e+00   1.0650514390450470e+00   1.0397023723830927e+00   1.1106737099041761e+00   1.0802454625311668e+00   1.1384539053343354e+00   1.1168185246060565e+00   1.1292860667669200e+00   1.1292860667669180e+00   1.0777770670544113e+00   1.0978635402475070e+00   1.0249887177609234e+00   1.0387301251029784e+00   1.0363835959250767e+00   1.0259085385560853e+00   1.0887674413692263e+00   1.0713448871707951e+00   1.1267958348526059e+00   1.1134369008447604e+00   1.1277663250124195e+00   1.1190773247929147e+00   1.0978300273507129e+00   1.0944101721399730e+00   1.0550739869799597e+00   1.0570565168205144e+00   1.0191872082163840e+00   1.0232735793267422e+00   1.0055837445336597e+00   1.0051338635707707e+00   1.0195333612624582e+00   1.0087868712422026e+00   1.0528017767696818e+00   1.0319151677296809e+00   1.0865571656328783e+00   1.0633791826463925e+00   1.0964896438870944e+00   1.0853871853843946e+00   1.0710269661916647e+00   1.0789628332757002e+00   1.0029042464874860e+00   1.0274876695541932e+00   1.0000000000000000e+00   1.0000000000000000e+00   1.0004038881518889e+00   1.0393651116596894e+00   1.0200403197879320e+00   1.0018039485660553e+00   1.0515186778089498e+00   1.0378232085232155e+00   1.0546260806875236e+00   1.0424896326425961e+00   1.0396585351532912e+00   1.0325978640308688e+00   1.0204474591937478e+00   1.0182549668076317e+00   1.0061372117614300e+00   1.0067567586572157e+00   1.0015396985568588e+00   1.0011381315459433e+00   1.0088937352286620e+00