<?xml version="1.0"?>
<VTKFile type="UnstructuredGrid"  version="0.1"  >
<UnstructuredGrid>
<Piece  NumberOfPoints="961" NumberOfCells="1800">
<Points>
<DataArray  type="Float64"  NumberOfComponents="3"  format="ascii">0 0 0  0.03333333333333333 0 0  0.06666666666666667 0 0  0.1 0 0  0.1333333333333333 0 0  0.1666666666666667 0 0  0.2 0 0  0.2333333333333333 0 0  0.2666666666666667 0 0  0.3 0 0  0.3333333333333333 0 0  0.3666666666666666 0 0  0.4 0 0  0.4333333333333334 0 0  0.4666666666666667 0 0  0.5 0 0  0.5333333333333333 0 0  0.5666666666666667 0 0  0.6 0 0  0.6333333333333333 0 0  0.6666666666666666 0 0  0.7 0 0  0.7333333333333333 0 0  0.7666666666666667 0 0  0.8 0 0  0.8333333333333334 0 0  0.8666666666666667 0 0  0.9 0 0  0.9333333333333332 0 0  0.9666666666666667 0 0  1 0 0  0 0.03333333333333333 0  0.03715845388268817 0.03715845388268815 0  0.07199407384323292 0.03623536197331994 0  0.1050692192127036 0.03389137740370311 0  0.1374178798430621 0.03149645310405289 0  0.1695742408216044 0.02952108177796714 0  0.201743763445653 0.02816051058507163 0  0.2339696738603005 0.02752384641902933 0  0.2662180797575906 0.02767594534493463 0  0.2984319067352886 0.02864302772144487 0  0.3305786149713156 0.03042339255926109 0  0.3627017534512709 0.03300706471876304 0  0.3950014693951255 0.03637618280037114 0  0.427991498667102 0.04040421086061252 0  0.4626723073242246 0.04442007701326806 0  0.4997650158463091 0.04636596836511921 0  0.5370385737273351 0.0443708908935691 0  0.5719303879328588 0.04029432829826486 0  0.6050337015132098 0.03624978574911801 0  0.6373974876377261 0.03289143430587933 0  0.6695626516645672 0.03033133471416924 0  0.7017378175095977 0.02858238725007246 0  0.7339678797219112 0.02765204861511732 0  0.7662199992507727 0.02753859989518686 0  0.7984379868728534 0.02821156472298363 0  0.8305903603001313 0.02960260309954411 0  0.8627223475216065 0.03160005966875092 0  0.8950372772312707 0.0340041889635837 0  0.9280556161163419 0.03633285951263263 0  0.9627927429586826 0.03720725704043104 0  1 0.03333333333333333 0  0 0.06666666666666667 0  0.03623536197331997 0.07199407384323293 0  0.07109519604394379 0.07109519604394375 0  0.104482986083524 0.06741774734008263 0  0.1370371761055303 0.06314807530799402 0  0.1693097716776029 0.05937718414188538 0  0.2015950323171106 0.05667062655771615 0  0.2339740846589764 0.05536254719206035 0  0.2663900022385124 0.05563812383606591 0  0.2987380276681081 0.05753897025327606 0  0.3309652104662233 0.06098139096886854 0  0.3631542543875638 0.06578920954858643 0  0.3955922166935001 0.07166583542630243 0  0.4288167086085988 0.07799983991763564 0  0.4634889500236187 0.08344610988165337 0  0.4996978448542462 0.08577245903758757 0  0.5360572102154072 0.08351191358160505 0  0.5709910655277528 0.07801397047034724 0  0.6044215931390406 0.07160290951786105 0  0.6370008230475301 0.06568248011488334 0  0.6692887562632085 0.06086950051114186 0  0.7015841530457395 0.05745347284223672 0  0.7339707933569738 0.05560095064909753 0  0.7663935356524267 0.05538184615600096 0  0.7987491536517286 0.05673806441182298 0  0.8309864812125094 0.0594708737383616 0  0.8631908703593918 0.06323734258484925 0  0.895653860635039 0.06746711950383141 0  0.9289210170982932 0.0710789829013834 0  0.9636671404881502 0.0719443838818903 0  1 0.06666666666666667 0  0 0.1 0  0.03389137740370312 0.1050692192127035 0  0.06741774734008264 0.104482986083524 0  0.1005015760574988 0.1005015760574988 0  0.1333953016939955 0.09516095213275709 0  0.1664108642025892 0.08995970271067058 0  0.1997421126049843 0.08596284602740012 0  0.2333839849297167 0.08392509540358201 0  0.2671345832905891 0.08428081974935928 0  0.3007103890182145 0.08706997842516159 0  0.3339253132551388 0.09196627775545943 0  0.3667902607745802 0.09839472998493719 0  0.399510294360139 0.1055801607717739 0  0.4324157689985709 0.1124737321613355 0  0.4658107167498154 0.1176807307825784 0  0.4997147868886591 0.1197097481688272 0  0.5337060771484486 0.1178019412705798 0  0.5673005602665193 0.1126137449351775 0  0.6004284539802216 0.1056549291830895 0  0.6333503339620457 0.09838492467896152 0  0.6663842383193691 0.09189920749473005 0  0.6997281375982354 0.08699337880165421 0  0.733379741539839 0.08424008771000284 0  0.7671391745723727 0.0839398375149388 0  0.8007246999337316 0.08601422872434643 0  0.8339522454231685 0.09000352630507323 0  0.8668354714155461 0.09515184990022135 0  0.8995835352312963 0.1004164647685224 0  0.9325328804960918 0.1043461393646723 0  0.9659958110365159 0.104962722768247 0  1 0.1 0  0 0.1333333333333333 0  0.03149645310405289 0.137417879843062 0  0.06314807530799402 0.1370371761055302 0  0.09516095213275719 0.1333953016939955 0  0.1278524736743606 0.1278524736743605 0  0.1615416216393938 0.121805414478501 0  0.1963918802742903 0.1166836944666065 0  0.2322250703445776 0.1138513193561978 0  0.2684145833096447 0.1142304421139036 0  0.3041211021297306 0.1178373108321584 0  0.3387785586683375 0.1238412645506329 0  0.3722652968863672 0.1310683023194504 0  0.4047774816243083 0.1383559462733203 0  0.4366546277427962 0.1446425386932347 0  0.4682377643792441 0.148969000228678 0  0.4997629000494021 0.1505715805932255 0  0.53133405580292 0.1491161650052238 0  0.5630399195363242 0.1448703291259199 0  0.595090346379035 0.1385757724998903 0  0.6278074363666236 0.1312111615288206 0  0.6615142053497683 0.123883184572207 0  0.6963772229580472 0.1178089905445155 0  0.7322206017649519 0.1141972243996948 0  0.7684194980557123 0.1138510751491602 0  0.8041361694229803 0.1166808365938272 0  0.8388063135022897 0.1217366696101633 0  0.87231055938308 0.1276894406167425 0  0.9048481500996592 0.1331645285843034 0  0.9367626574150926 0.1368091296404234 0  0.9683999403312337 0.137277652478171 0  1 0.1333333333333333 0  0 0.1666666666666667 0  0.02952108177796717 0.1695742408216045 0  0.05937718414188538 0.1693097716776029 0  0.08995970271067058 0.1664108642025892 0  0.1218054144785011 0.1615416216393937 0  0.1555703982858468 0.1555703982858468 0  0.1918282831842484 0.1498221150034351 0  0.2305100791408789 0.1462290363067928 0  0.2701937327003112 0.1465561875195021 0  0.3086567134179787 0.1507771270177419 0  0.3446589765306206 0.157215000238342 0  0.3782263758604615 0.1641399482079175 0  0.4099404015080093 0.170423585896234 0  0.4404458101471465 0.1753953864420686 0  0.470275734675335 0.1786145291900114 0  0.4998262685113971 0.1797836832759414 0  0.5293992642263544 0.1787780625693241 0  0.5592938083689534 0.1756836122241513 0  0.5899037417653823 0.1707701252894845 0  0.6217687292040867 0.1644634967041351 0  0.6555474653355799 0.1574367476429508 0  0.6918157427227718 0.1508605189735892 0  0.7305062477476658 0.1465508913965919 0  0.7701981091089989 0.1461939584390712 0  0.8086697401475074 0.1497022244658717 0  0.8446823025737353 0.1553176974259657 0  0.878263330389657 0.1611936864975662 0  0.9099964736948283 0.1660477545767076 0  0.9405291262615666 0.1690135187873449 0  0.9703973969004333 0.1694096396997569 0  1 0.1666666666666667 0  0 0.2 0  0.02816051058507164 0.2017437634456528 0  0.05667062655771614 0.2015950323171105 0  0.08596284602740009 0.1997421126049842 0  0.1166836944666065 0.1963918802742902 0  0.1498221150034352 0.1918282831842484 0  0.1867341102000596 0.1867341102000596 0  0.2283271152093392 0.182928783224733 0  0.2723159181684209 0.1830855054832608 0  0.3136052017940259 0.1871786406490301 0  0.3502839620806979 0.1926716440777969 0  0.3832976420740163 0.1978769884095007 0  0.4139533226766896 0.2021825998457504 0  0.443213813168461 0.2053888614361199 0  0.4717181801948668 0.207397331986635 0  0.4998994284967886 0.2081367185541188 0  0.5280901756632644 0.2075717574448535 0  0.5566225458191114 0.2057169348165862 0  0.585930617357115 0.2026247038935499 0  0.6166625558687167 0.1983729946018746 0  0.6498088093316625 0.1931318325068213 0  0.6867267313788696 0.1874832797206806 0  0.7283249148775731 0.1831624750271349 0  0.7723187763351207 0.1828049791183592 0  0.813613177675692 0.1863868223232751 0  0.8502977755335992 0.1913302598523731 0  0.8833191634059946 0.1958638305769263 0  0.9139857712755471 0.1992753000661541 0  0.9432619355881265 0.2012508463481807 0  0.9717884352770069 0.201562013127097 0  1 0.2 0  0 0.2333333333333333 0  0.02752384641902931 0.2339696738603002 0  0.05536254719206032 0.233974084658976 0  0.08392509540358195 0.2333839849297164 0  0.1138513193561978 0.2322250703445774 0  0.1462290363067928 0.2305100791408786 0  0.182928783224733 0.2283271152093391 0  0.2262895299541858 0.2262895299541857 0  0.2740190305982075 0.2261071090007181 0  0.3171948639361094 0.2279950390521752 0  0.3538056838809646 0.2303042675440601 0  0.3861476611487452 0.2323087564141327 0  0.4160568937626878 0.2338881321643441 0  0.4446113053092324 0.235043319941693 0  0.4724488071610879 0.2357776635752009 0  0.4999788081856151 0.2360846000399189 0  0.5275112281883967 0.2359562208376297 0  0.5553558260913523 0.2353890779078422 0  0.5839221564061418 0.2343796274368077 0  0.6138505736504689 0.2329132980453544 0  0.6462293472999908 0.2309658516266902 0  0.6829293954366946 0.2285898639970105 0  0.7262900394324282 0.226362744863202 0  0.7740193317116459 0.2259806682770795 0  0.8171950208768323 0.2276812236672869 0  0.8538060415605182 0.2298018908911969 0  0.8861489248507127 0.2315805019442365 0  0.9160601624850284 0.2328608254275787 0  0.9446181538440068 0.2336064643475325 0  0.9724614001048231 0.2337800007492011 0  1 0.2333333333333333 0  0 0.2666666666666667 0  0.02767594534493461 0.2662180797575905 0  0.05563812383606585 0.2663900022385122 0  0.08428081974935921 0.2671345832905888 0  0.1142304421139036 0.2684145833096444 0  0.1465561875195021 0.270193732700311 0  0.1830855054832608 0.2723159181684207 0  0.2261071090007181 0.2740190305982074 0  0.2736399612073582 0.2736399612073582 0  0.3168462471627295 0.2714150222835295 0  0.3534635234988169 0.2690400695635496 0  0.3858232775360975 0.2670926729186754 0  0.4157875369276055 0.2656255338973301 0  0.4444353873730827 0.26461453
[...]
<CellData  Scalars="q"> 
<DataArray  type="Float64"  Name="q"  format="ascii">1.0046515447787978e+00   1.0046515447787980e+00   1.0000000000000000e+00   1.0000000000000000e+00   1.0000000000000000e+00   1.0000000000000000e+00   1.0000000000000000e+00   1.0000000000000000e+00   1.0012239920487498e+00   1.0000000000000000e+00   1.0097222704314746e+00   1.0027526068158685e+00   1.0155038757471191e+00   1.0107759892103374e+00   1.0154074295830100e+00   1.0139313275149260e+00   1.0092703534359704e+00   1.0103968285314180e+00   1.0001842551707498e+00   1.0019178484041871e+00   1.0000000000000000e+00   1.0000000000000000e+00   1.0000000000000000e+00   1.0000000000000000e+00   1.0037480847407800e+00   1.0000000000000000e+00   1.0229002699659819e+00   1.0024732028381118e+00   1.0379285296311860e+00   1.0179613757022317e+00   1.0307506292860165e+00   1.0230147365417950e+00   1.0103251288784403e+00   1.0098756076515740e+00   1.0000000000000000e+00   1.0000000000000000e+00   1.0000000000000000e+00   1.0000000000000000e+00   1.0000000000000000e+00   1.0000000000000000e+00   1.0069335090580749e+00   1.0000000000000000e+00   1.0142476223376455e+00   1.0087204721216660e+00   1.0160782219387439e+00   1.0136611387042145e+00   1.0116641809567264e+00   1.0119716887740922e+00   1.0035076190286536e+00   1.0048612031784299e+00   1.0000000000000000e+00   1.0000000000000000e+00   1.0000000000000000e+00   1.0000000000000000e+00   1.0000000000000000e+00   1.0000000000000000e+00   1.0075732796266907e+00   1.0000000000000000e+00   1.0010441401265668e+00   1.0077845776701366e+00   1.0000000000000000e+00   1.0000000000000000e+00   1.0000561009144850e+00   1.0000561009144850e+00   1.0000000000000000e+00   1.0063026380080200e+00   1.0000000000000000e+00   1.0060981222875776e+00   1.0000000000000000e+00   1.0047613293477071e+00   1.0036985135505649e+00   1.0058581021826458e+00   1.0093400286259435e+00   1.0086242392788791e+00   1.0111604865638835e+00   1.0105321628001631e+00   1.0082046189231098e+00   1.0101263098692632e+00   1.0027669054885315e+00   1.0084631593675502e+00   1.0000000000000000e+00   1.0080718047979063e+00   1.0000000000000000e+00   1.0102143179820751e+00   1.0004093148688231e+00   1.0124916712298209e+00   1.0012553953502297e+00   1.0097171084914582e+00   1.0030431677847160e+00   1.0021556405869649e+00   1.0083843793155960e+00   1.0030411406892781e+00   1.0081469472944269e+00   1.0124169412928814e+00   1.0008774993104566e+00   1.0151049255677345e+00   1.0000000000000000e+00   1.0099956238044947e+00   1.0000000000000000e+00   1.0053830262131014e+00   1.0015010536542144e+00   1.0049747786121899e+00   1.0079380590699354e+00   1.0076054650175386e+00   1.0110602670305826e+00   1.0101588765240086e+00   1.0093012970832591e+00   1.0104946180203249e+00   1.0044020285393458e+00   1.0089922825959921e+00   1.0000000000000000e+00   1.0076489445263084e+00   1.0000000000000000e+00   1.0074255060742430e+00   1.0000000000000000e+00   1.0063942212728927e+00   1.0007938630049800e+00   1.0013694580822756e+00   1.0075732796256047e+00   1.0000000000000000e+00   1.0000000000000000e+00   1.0000000000000000e+00   1.0063026380080200e+00   1.0000000000000000e+00   1.0259841534468959e+00   1.0259841534468959e+00   1.0297331599436523e+00   1.0385153140695889e+00   1.0236266347481180e+00   1.0354299584278044e+00   1.0159867419761799e+00   1.0245077475946909e+00   1.0111920611921343e+00   1.0144090599980371e+00   1.0106608591133637e+00   1.0105481460596517e+00   1.0145341610436818e+00   1.0148882460319593e+00   1.0222882308270358e+00   1.0261190952145192e+00   1.0319537961220129e+00   1.0399640985832965e+00   1.0388634088203439e+00   1.0496690360913012e+00   1.0360087085961656e+00   1.0476361298320811e+00   1.0198985077895886e+00   1.0303688213818136e+00   1.0020918672739116e+00   1.0075148070792206e+00   1.0058095989440230e+00   1.0021185458989237e+00   1.0285913154059227e+00   1.0239545776214682e+00   1.0428346822760717e+00   1.0481121200417221e+00   1.0395937263658364e+00   1.0538181802859599e+00   1.0283100838565129e+00   1.0439549000499857e+00   1.0176801275014360e+00   1.0285135463207031e+00   1.0115248797612830e+00   1.0158351409561308e+00   1.0104049743394783e+00   1.0105264755555827e+00   1.0135388640765752e+00   1.0135760311776625e+00   1.0195518848390130e+00   1.0227098933397119e+00   1.0258556995974084e+00   1.0328933613208311e+00   1.0274110996731718e+00   1.0370285050475481e+00   1.0186931732790907e+00   1.0283603637594045e+00   1.0000000000000000e+00   1.0063942212707802e+00   1.0000000000000000e+00   1.0000000000000000e+00   1.0000000000000000e+00   1.0000000000000000e+00   1.0060981222875776e+00   1.0000000000000000e+00   1.0385153140695889e+00   1.0297331599436526e+00   1.0545398685231520e+00   1.0545398685231517e+00   1.0498549341590089e+00   1.0598659751934165e+00   1.0320542821269438e+00   1.0444817331450098e+00   1.0154666463482092e+00   1.0226125115532816e+00   1.0122187215955982e+00   1.0117819796866760e+00   1.0250615508381766e+00   1.0212376362340718e+00   1.0464204114372164e+00   1.0446857703881305e+00   1.0643882259833586e+00   1.0668440916894648e+00   1.0684579123168607e+00   1.0744965703067348e+00   1.0536615260751274e+00   1.0622947091441310e+00   1.0255984097279376e+00   1.0351051131905893e+00   1.0034517548873967e+00   1.0085597664920736e+00   1.0078457048043927e+00   1.0026937781789105e+00   1.0359959858067234e+00   1.0242274990678342e+00   1.0637277493764672e+00   1.0563222071476146e+00   1.0726484189541083e+00   1.0766345971091609e+00   1.0607320957028563e+00   1.0743148413888117e+00   1.0376297087943647e+00   1.0528075734131481e+00   1.0174503990797359e+00   1.0263629825341791e+00   1.0115118638370892e+00   1.0120826220662811e+00   1.0215418907851501e+00   1.0182850082183972e+00   1.0390119591704856e+00   1.0377413182566693e+00   1.0514202734173694e+00   1.0545455510560999e+00   1.0484053525608246e+00   1.0555673533546033e+00   1.0274110996729002e+00   1.0370285050472148e+00   1.0000000000000000e+00   1.0074255060741155e+00   1.0000000000000000e+00   1.0000000000000000e+00   1.0000000000000000e+00   1.0012239920487498e+00   1.0047613293477076e+00   1.0000000000000000e+00   1.0354299584278046e+00   1.0236266347481182e+00   1.0598659751934165e+00   1.0498549341590089e+00   1.0641148207360343e+00   1.0641148207360345e+00   1.0455271179602015e+00   1.0543681708330346e+00   1.0199109923195111e+00   1.0281758501081111e+00   1.0128955669948019e+00   1.0114643393806111e+00   1.0321092610112839e+00   1.0235889081568978e+00   1.0599726852504243e+00   1.0520560853647256e+00   1.0762192493902920e+00   1.0720305912548165e+00   1.0718316763166551e+00   1.0715376779358636e+00   1.0497214088126792e+00   1.0530620213489779e+00   1.0214855882707936e+00   1.0269043405364522e+00   1.0027762031918952e+00   1.0060167500694253e+00   1.0052238761629608e+00   1.0013110202291156e+00   1.0281509337489896e+00   1.0160385475661877e+00   1.0585460177479260e+00   1.0431436915099108e+00   1.0791738120814389e+00   1.0687868055474810e+00   1.0775574223940880e+00   1.0783789054586972e+00   1.0535625132420794e+00   1.0639556690119365e+00   1.0232194986048357e+00   1.0331021378799492e+00   1.0120086169974072e+00   1.0120284556299048e+00   1.0271402216310783e+00   1.0199496445262659e+00   1.0504211953161735e+00   1.0441397891582958e+00   1.0612946700496673e+00   1.0595520640436860e+00   1.0514202734173081e+00   1.0545455510562896e+00   1.0258556995971622e+00   1.0328933613207689e+00   1.0000000000000000e+00   1.0076489445262837e+00   1.0000000000000000e+00   1.0000000000000000e+00   1.0027526068158679e+00   1.0097222704314741e+00   1.0058581021826458e+00   1.0036985135505645e+00   1.0245077475946913e+00   1.0159867419761799e+00   1.0444817331450098e+00   1.0320542821269438e+00   1.0543681708330346e+00   1.0455271179602013e+00   1.0435509013436572e+00   1.0435509013436572e+00   1.0182142775195693e+00   1.0230446614639455e+00   1.0088888823134246e+00   1.0061726793937935e+00   1.0280663022195335e+00   1.0162247469723091e+00   1.0521522509317709e+00   1.0394727214750643e+00   1.0604525010077506e+00   1.0508991433236852e+00   1.0509095015605201e+00   1.0454345819754796e+00   1.0317001524695206e+00   1.0303698972113544e+00   1.0126103912115938e+00   1.0141867376950493e+00   1.0013619400949259e+00   1.0029786292425125e+00   1.0022503957280406e+00   1.0002585652299696e+00   1.0152822195308704e+00   1.0070879581750916e+00   1.0359533407547914e+00   1.0218146968584787e+00   1.0557765507924770e+00   1.0396847531124229e+00   1.0637296405401262e+00   1.0525757769471034e+00   1.0502877043784444e+00   1.0495445266470032e+00   1.0214340190812030e+00   1.0267965726874833e+00   1.0081379477049173e+00   1.0067297533003636e+00   1.0237451792807339e+00   1.0135335129020988e+00   1.0447763601696598e+00   1.0343382023886944e+00   1.0504211953153995e+00   1.0441397891598154e+00   1.0390119591707341e+00   1.0377413182559416e+00   1.0195518848390361e+00   1.0227098933398289e+00   1.0044020285395368e+00   1.0089922825961453e+00   1.0035076190288872e+00   1.0048612031785558e+00   1.0107759892103374e+00   1.0155038757471193e+00   1.0086242392788787e+00   1.0093400286259433e+00   1.0144090599980364e+00   1.0111920611921337e+00   1.0226125115532811e+00   1.0154666463482083e+00   1.0281758501081104e+00   1.0199109923195104e+00   1.0230446614639455e+00   1.0182142775195688e+00   1.0090790678351680e+00   1.0090790678351680e+00   1.0018012394352933e+00   1.0012460426705034e+00   1.0117849571849320e+00   1.0032661312441091e+00   1.0255780726285295e+00   1.0138387484777867e+00   1.0283702398141774e+00   1.0189362308231120e+00   1.0217052615617934e+00   1.0156913014870159e+00   1.0123073893970809e+00   1.0094324851060836e+00   1.0046813005816746e+00   1.0040995772019246e+00   1.0005812350330789e+00   1.0009821914411912e+00   1.0004912764822955e+00   1.0000694949029922e+00   1.0046264059757883e+00   1.0014412160675572e+00   1.0126791923960614e+00   1.0054999078590297e+00   1.0225543539601119e+00   1.0118722230516406e+00   1.0292743662333761e+00   1.0179132077782156e+00   1.0249641281276225e+00   1.0179760397039728e+00   1.0105949837988970e+00   1.0098391903259378e+00   1.0016256433383040e+00   1.0015617812956534e+00   1.0101862028783344e+00   1.0027054882923154e+00   1.0237451792759198e+00   1.0135335129066954e+00   1.0271402216328145e+00   1.0199496445193104e+00   1.0215418907846532e+00   1.0182850082190611e+00   1.0135388640767851e+00   1.0135760311778634e+00   1.0093012970833921e+00   1.0104946180204482e+00   1.0116641809567615e+00   1.0119716887741808e+00   1.0139313275149267e+00   1.0154074295830107e+00   1.0105321628001636e+00   1.0111604865638839e+00   1.0105481460596515e+00   1.0106608591133637e+00   1.0117819796866756e+00   1.0122187215955980e+00   1.0114643393806109e+00   1.0128955669948019e+00   1.0061726793937933e+00   1.0088888823134248e+00   1.0012460426705032e+00   1.0018012394352935e+00   1.0004575760279331e+00   1.0004575760279331e+00   1.0011163731538391e+00   1.0014463393086057e+00   1.0059006931332444e+00   1.0051913254773426e+00   1.0074998362874816e+00   1.0082199924415896e+00   1.0050213548741549e+00   1.0062373665067286e+00   1.0021647193769756e+00   1.0029450325495299e+00   1.0006529131127517e+00   1.0008152519982403e+00   1.0002162527191873e+00   1.0001410771611505e+00   1.0002087967047797e+00   1.0002475641571758e+00   1.0007984470445668e+00   1.0009334928492697e+00   1.0027050043554309e+00   1.0027588330124668e+00   1.0057364011085226e+00   1.0058924076473661e+00   1.0075498963374050e+00   1.0084997642091558e+00   1.0045866824055525e+00   1.0066986863690930e+00   1.0011165470935850e+00   1.0013081465347993e+00   1.0005009286063358e+00   1.0004159880422321e+00   1.0016256433434696e+00   1.0015617812975168e+00   1.0081379477011800e+00   1.0067297532912964e+00   1.0120086169943256e+00   1.0120284556353636e+00   1.0115118638378739e+00   1.0120826220666337e+00   1.0104049743395955e+00   1.0105264755557197e+00   1.0110602670307181e+00   1.0101588765242331e+00   1.0160782219388567e+00   1.0136611387043686e+00   1.0103968285314182e+00   1.0092703534359704e+00   1.0101263098692632e+00   1.0082046189231098e+00   1.0148882460319593e+00   1.0145341610436815e+00   1.0212376362340718e+00   1.0250615508381766e+00   1.0235889081568983e+00   1.0321092610112843e+00   1.0162247469723096e+00   1.0280663022195340e+00   1.0032661312441093e+00   1.0117849571849320e+00   1.0014463393086057e+00   1.0011163731538391e+00   1.0114633566926219e+00   1.0114633566926221e+00   1.0215017111227316e+00   1.0290585039903775e+00   1.0218463871392873e+00   1.0349505205429099e+00   1.0149610165398406e+00   1.0276457448767022e+00   1.0072465152395154e+00   1.0160357325109179e+00   1.0019773154510323e+00   1.0060778705033826e+00   1.0000208869262466e+00   1.0006910195214869e+00   1.0012158511008351e+00   1.0007001033516425e+00   1.0053688230679552e+00   1.0059277281798169e+00   1.0120850415957174e+00   1.0154377159842625e+00   1.0195121771527160e+00   1.0266990990967666e+00   1.0230522638345829e+00   1.0342308145282364e+00   1.0167343969539824e+00   1.0303291247829942e+00   1.0038867220561549e+00   1.0135421758241390e+00   1.0011165470934036e+00   1.0013081465403784e+00   1.0105949838088475e+00   1.0098391903351560e+00   1.0214340190745392e+00   1.0267965727046042e+00   1.0232194986105601e+00   1.0331021378899412e+00   1.0174503990789425e+00   1.0263629825322143e+00   1.0115248797615566e+00   1.0158351409572017e+00   1.0079380590701406e+00   1.0076054650175659e+00   1.0142476223378609e+00   1.0087204721218199e+00   1.0019178484041871e+00   1.0001842551707500e+00   1.0084631593675490e+00   1.0027669054885304e+00   1.0261190952145194e+00   1.0222882308270353e+00   1.0446857703881300e+00   1.0464204114372164e+00   1.0520560853647258e+00   1.0599726852504237e+00   1.0394727214750650e+00   1.0521522509317718e+00   1.0138387484777864e+00   1.0255780726285300e+00   1.0051913254773428e+00   1.0059006931332446e+00   1.0290585039903775e+00   1.0215017111227316e+00   1.0571408312766311e+00   1.0571408312766311e+00   1.0622430062437922e+00   1.0750435621908454e+00   1.0479463447511244e+00   1.0669956354048444e+00   1.0269364099088156e+00   1.0439483260583993e+00   1.0091353056888257e+00   1.0192565170513119e+00   1.0006865103845681e+00   1.0034455354218264e+00   1.0039294302090849e+00   1.0022528479886561e+00   1.0175644373559853e+00   1.0158010829804882e+00   1.0370109419907556e+00   1.0387615417685439e+00   1.0545959543114232e+00   1.0615093270466027e+00   1.0601028753926540e+00   1.0720161945859417e+00   1.0452165840677607e+00   1.0605795607982884e+00   1.0167343969611529e+00   1.0303291247769750e+00   1.0045866823987373e+00   1.0066986863676455e+00   1.0249641281456681e+00   1.0179760396959772e+00   1.0502877044165631e+00   1.0495445266885381e+00   1.0535625132504649e+00   1.0639556690005145e+00   1.0376297087955488e+00   1.0528075734165945e+00   1.0176801275020499e+00   1.0285135463216297e+00   1.0015010536541775e+00   1.0049747786119358e+00   1.0069335090582821e+00   1.0000000000000000e+00   1.0000000000000000e+00   1.0000000000000000e+00   1.0080718047979047e+00   1.0000000000000000e+00   1.0399640985832970e+00   1.0319537961220118e+00   1.0668440916894648e+00   1.0643882259833597e+00   1.0720305912548156e+00   1.0762192493902907e+00   1.0508991433236852e+00   1.0604525010077499e+00   1.0189362308231122e+00   1.0283702398141772e+00   1.0082199924415900e+00   1.0074998362874821e+00   1.0349505205429113e+00   1.0218463871392884e+00   1.0750435621908481e+00   1.0622430062437962e+00   1.0949297811564414e+00   1.0949297811564440e+00   1.0845614307548843e+00   1.0986695007334766e+00   1.0538999140698460e+00   1.0738914782746452e+00   1.0211295740880018e+00   1.0367599766801137e+00   1.0032213805490500e+00   1.0087025552111077e+00   1.0087887483508458e+00   1.0055188183164789e+00   1.0340934238104362e+00   1.0282462224113067e+00   1.0659227779327649e+00   1.0630710930909029e+00   1.0879897762026149e+00   1.0904043262018517e+00   1.0870361371463400e+00   1.0947901883679219e+00   1.0601028753947266e+00   1.0720161945850160e+00   1.0230522638272586e+00   1.0342308145307699e+00   1.0075498963399598e+00   1.0084997642059745e+00   1.0292743662426904e+00   1.0179132077803312e+00   1.0637296405327767e+00   1.0525757769602100e+00   1.0775574223778843e+00   1.0783789054414386e+00   1.0607320957050199e+00   1.0743148413960566e+00   1.0283100838574308e+00   1.0439549000495332e+00   1.0000000000000000e+00   1.0053830262130856e+00   1.0000000000000000e+00   1.0000000000000000e+00   1.0000000000000000e+00   1.0000000000000000e+00   1.0102143179820740e+00   1.0000000000000000e+00   1.0496690360913012e+00   1.0388634088203430e+00   1.0744965703067348e+00   1.0684579123168612e+00   1.0715376779358632e+00   1.0718316763166544e+00   1.0454345819754784e+00   1.0509095015605190e+00   1.0156913014870150e+00   1.0217052615617919e+00   1.0062373665067292e+00   1.0050213548741551e+00   1.0276457448767045e+00   1.0149610165398424e+00   1.0669956354048495e+00   1.0479463447511286e+00   1.0986695007334788e+00   1.0845614307548876e+00   1.1025824135974793e+00   1.1025824135974784e+00   1.0756014480363389e+00   1.0893570039221459e+00   1.0342318954287228e+00   1.0511735166286835e+00   1.0072047318436979e+00   1.0145358289814910e+00   1.0144889766665499e+00   1.0090884930266057e+00   1.0483731090988317e+00   1.0379425818874106e+00   1.0841173844701935e+00   1.0760720171035625e+00   1.1001086385135808e+00   1.0970954416221033e+00   1.0879897762030393e+00   1.0904043262020431e+00   1.0545959543107135e+00   1.0615093270471618e+00   1.0195121771534219e+00   1.0266990990963223e+00   1.0057364011089400e+00   1.0058924076478972e+00   1.0225543539587427e+00   1.0118722230507549e+00   1.0557765507963877e+00   1.0396847531145479e+00   1.0791738120872902e+00   1.0687868055488983e+00   1.0726484189493890e+00   1.0766345971039182e+00   1.0395937263715775e+00   1.0538181802845163e+00   1.0000000000000000e+00   1.0099956238095888e+00   1.0000000000000000e+00   1.0000000000000000e+00   1.0000000000000000e+00   1.0037480847407796e+00   1.0124916712298191e+00   1.0004093148688216e+00   1.0476361298320818e+00   1.0360087085961647e+00   1.0622947091441315e+00   1.0536615260751285e+00   1.0530620213489774e+00   1.0497214088126792e+00   1.0303698972113526e+00   1.0317001524695191e+00   1.0094324851060823e+00   1.0123073893970789e+00   1.0029450325495306e+00   1.0021647193769752e+00   1.0160357325109199e+00   1.0072465152395160e+00   1.0439483260584010e+00   1.0269364099088163e+00   1.0738914782746443e+00   1.0538999140698446e+00   1.0893570039221436e+00   1.0756014480363354e+00   1.0775559825827505e+00   1.0775559825827490e+00   1.0406518811483785e+00   1.0516831248658847e+00   1.0093671872884402e+00   1.0159140089165961e+00   1.0164980898294733e+00   1.0088001112028342e+00   1.0508093943785719e+00   1.0365722963384725e+00   1.0795033904115170e+00   1.0669932508993953e+00   1.0841173844703060e+00   1.0760720171043012e+00   1.0659227779331053e+00   1.0630710930911642e+00   1.0370109419910873e+00   1.0387615417688441e+00   1.0120850415960625e+00   1.0154377159845958e+00   1.0027050043553922e+00   1.0027588330125652e+00   1.0126791923967178e+00   1.0054999078590774e+00   1.0359533407566035e+00   1.0218146968593391e+00   1.0585460177474986e+00   1.0431436915117240e+00   1.0637277493788040e+00   1.0563222071574709e+00   1.0428346822863306e+00   1.0481121200544792e+00   1.0008774993169531e+00   1.0151049255802569e+00   1.0000000000000000e+00   1.0000000000000000e+00   1.0024732028381123e+00   1.0229002699659828e+00   1.0097171084914565e+00   1.0012553953502294e+00   1.0303688213818125e+00   1.0198985077895868e+00   1.0351051131905897e+00   1.0255984097279374e+00   1.0269043405364524e+00   1.0214855882707936e+00   1.0141867376950477e+00   1.0126103912115931e+00   1.0040995772019232e+00   1.0046813005816733e+00   1.0008152519982401e+00   1.0006529131127513e+00   1.0060778705033830e+00