<?xml version="1.0"?>
<VTKFile type="UnstructuredGrid"  version="0.1"  >
<UnstructuredGrid>
<Piece  NumberOfPoints="961" NumberOfCells="1800">
<Points>
<DataArray  type="Float64"  NumberOfComponents="3"  format="ascii">0 0 0  0.03333333333333333 0 0  0.06666666666666667 0 0  0.1 0 0  0.1333333333333333 0 0  0.1666666666666667 0 0  0.2 0 0  0.2333333333333333 0 0  0.2666666666666667 0 0  0.3 0 0  0.3333333333333333 0 0  0.3666666666666666 0 0  0.4 0 0  0.4333333333333333 0 0  0.4666666666666667 0 0  0.4999999999999999 0 0  0.5333333333333333 0 0  0.5666666666666667 0 0  0.6 0 0  0.6333333333333333 0 0  0.6666666666666666 0 0  0.7 0 0  0.7333333333333333 0 0  0.7666666666666667 0 0  0.8 0 0  0.8333333333333334 0 0  0.8666666666666667 0 0  0.9 0 0  0.9333333333333333 0 0  0.9666666666666667 0 0  1 0 0  0 0.03333333333333333 0  0.04035526474152892 0.04035526474152892 0  0.07455982480672425 0.03780518123275503 0  0.1065986434955776 0.03423427494670541 0  0.1382419524314407 0.03110304377977545 0  0.1699833024534536 0.02866908679187683 0  0.2019287393328591 0.02703132692690444 0  0.234040507068762 0.02627632827846571 0  0.2662108934544621 0.02647498854861685 0  0.2983095079918973 0.02766376467380709 0  0.3302335429558584 0.02986236296302688 0  0.3619519614318163 0.03313525561794448 0  0.3935762899610875 0.0376772885183059 0  0.4255889683217391 0.04387821623584185 0  0.4596072196040143 0.05192487928384384 0  0.4993084290085314 0.05799039920988466 0  0.5400940355457899 0.05214544396393115 0  0.5744454459912168 0.0438173070401028 0  0.6065418710915945 0.03755141489644923 0  0.6382116440364959 0.03301225243792022 0  0.669966871321105 0.02976193623955847 0  0.7019205741523179 0.02759561234435758 0  0.734038133996001 0.02644589091134468 0  0.7662136146099632 0.0262888018836348 0  0.7983180584501439 0.02708183253033535 0  0.8302504558315009 0.02874944111641232 0  0.8619829729540885 0.03120131617073912 0  0.8936342905273116 0.03432741192786753 0  0.9257059251176767 0.0378247948531736 0  0.9598744372224843 0.04012556246036049 0  1 0.03333333333333333 0  0 0.06666666666666667 0  0.03780518123275503 0.07455982480672425 0  0.07282549878867214 0.07282549878867216 0  0.10568393584971 0.06773129779473232 0  0.1376713582124983 0.06227890696113175 0  0.1695574375424587 0.05763139072672779 0  0.2016633868132374 0.0543384306215056 0  0.2340208609299575 0.05275906429450842 0  0.2664728813190888 0.05312205196872989 0  0.2987917848978452 0.0554834864482753 0  0.3308317027284163 0.05975680422974358 0  0.3626319859755646 0.06581304285386648 0  0.394504488821893 0.07350836306026068 0  0.4271755272512117 0.08244698782469354 0  0.4618763659740087 0.09111503732794565 0  0.4994784484900436 0.09546873646789519 0  0.5375078446513257 0.09141097269307961 0  0.5726620045615135 0.08259765446884405 0  0.6055926798614035 0.07349303699696762 0  0.6376196189468 0.06571299742651397 0  0.6695285042621189 0.05963510558359208 0  0.7016487869915694 0.05538369401164885 0  0.7340166039115031 0.05307407949709775 0  0.7664778053632205 0.0527745662217082 0  0.798807093072334 0.05440500125326034 0  0.8308614393233364 0.05771843225228254 0  0.8626847012577784 0.06234305110226195 0  0.8945969996711846 0.06771338176290645 0  0.92734059725393 0.07265940260350558 0  0.9621752049101396 0.07429407487758199 0  1 0.06666666666666667 0  0 0.1 0  0.0342342749467054 0.1065986434955776 0  0.0677312977947323 0.1056839358497101 0  0.1005120771713776 0.1005120771713776 0  0.1330732965256646 0.09378345328619671 0  0.1659111126821644 0.08729994429808839 0  0.1993160433011859 0.08230568722058224 0  0.2332766486665148 0.07974480257522441 0  0.2674466804238285 0.08022085361759533 0  0.3013140363194275 0.08378060975732621 0  0.3345674656827746 0.08996588344905557 0  0.3672210413072231 0.09808351782987908 0  0.3995720819529424 0.1072921634009147 0  0.4321212488932082 0.116420866667261 0  0.4654105872789327 0.123664423398212 0  0.4996088224805319 0.1266630472354069 0  0.5339725746098436 0.1239177346708866 0  0.5675666172572211 0.116697971009047 0  0.6004111843379886 0.1074517207501656 0  0.6330126044859904 0.09810567551543553 0  0.6658759311725025 0.08989398672338376 0  0.6992979373191555 0.08368177889782123 0  0.7332713580532153 0.08016152510765824 0  0.7674529204255169 0.0797568063820661 0  0.801333105787144 0.08235812755331837 0  0.8346036338984991 0.0873276988940087 0  0.8672827278624473 0.09372257280546475 0  0.8996738990866909 0.1003261006848502 0  0.9322866180616606 0.1054030001829767 0  0.9656725879425794 0.1063657094219236 0  1 0.1 0  0 0.1333333333333333 0  0.03110304377977548 0.1382419524314408 0  0.06227890696113176 0.1376713582124984 0  0.09378345328619676 0.1330732965256647 0  0.1260817898971172 0.1260817898971172 0  0.1596837446050025 0.1183380714041875 0  0.1949436717664638 0.111599015595602 0  0.2317539770737858 0.1077535501165163 0  0.2691905451376387 0.1082813611103057 0  0.3057950501426112 0.1131698481390805 0  0.340777211729145 0.1210597440145322 0  0.3741129700443585 0.130334340599374 0  0.4061863253954849 0.1395906270064775 0  0.4375177900081226 0.1476065751823862 0  0.4685928332914109 0.1532087376907239 0  0.4997100717172569 0.1553322250023939 0  0.5308972775524515 0.1534393867676423 0  0.56214019642993 0.1479539344325051 0  0.5936931313876374 0.139920206948522 0  0.6260247777549074 0.1305464151066872 0  0.659649505004565 0.1211157998816355 0  0.6949256459264402 0.1131103242664896 0  0.7317487230831274 0.1082148640317544 0  0.7691970084701385 0.1077584811303322 0  0.8058142536454457 0.1116010214813411 0  0.840812566432814 0.1182313190055622 0  0.8741709779823561 0.1258290215748685 0  0.9062774268909414 0.1327172718573388 0  0.9376569487080169 0.1373152985818118 0  0.9687986837308035 0.1380170269772724 0  1 0.1333333333333333 0  0 0.1666666666666667 0  0.02866908679187684 0.1699833024534536 0  0.05763139072672783 0.1695574375424588 0  0.08729994429808849 0.1659111126821646 0  0.1183380714041876 0.1596837446050026 0  0.1516977093473556 0.1516977093473557 0  0.1884946945698091 0.1434396088733335 0  0.2292369641623609 0.1377995370535162 0  0.2719283691240205 0.1383112000541347 0  0.3122322629052508 0.1447997419128176 0  0.3486266169597964 0.1539116530969077 0  0.3817255862494031 0.1630981476790737 0  0.4126065644376341 0.1711127511847507 0  0.4421839169473017 0.1773452450618651 0  0.471109675709512 0.1813725174931402 0  0.4998041376060368 0.1828474747474636 0  0.5285283310611723 0.1815997236423611 0  0.557534234346866 0.1777436994229567 0  0.5872350639233263 0.1715922387919144 0  0.6182961004991987 0.1635465750392543 0  0.6516718598034336 0.1542049834121048 0  0.6884807601818174 0.1448583314767338 0  0.7292329774233535 0.1382397112875955 0  0.7719338337886641 0.1377948869236251 0  0.8122475986289982 0.1433134252554286 0  0.8486537597386306 0.151346239209718 0  0.8817686803504533 0.1591874330176204 0  0.9126723007540741 0.1653963658113343 0  0.9422815675659296 0.1691385605280726 0  0.9712505588044865 0.1697495441063076 0  0.9999999999999999 0.1666666666666667 0  0 0.2 0  0.02703132692690447 0.2019287393328592 0  0.05433843062150565 0.2016633868132376 0  0.08230568722058233 0.1993160433011861 0  0.1115990155956021 0.194943671766464 0  0.1434396088733335 0.1884946945698092 0  0.1801314890624585 0.1801314890624586 0  0.225123234743376 0.1722520508102976 0  0.2762195243478431 0.1726291773438388 0  0.3203485109615641 0.1807847642076616 0  0.356674749677096 0.1895913527113425 0  0.3883799137289096 0.1968580818617746 0  0.4176116489635082 0.2024360084197208 0  0.4455483016049134 0.2064461353355867 0  0.4728484153586694 0.2089270480858237 0  0.4998995838527888 0.2098427436022363 0  0.5269618034753131 0.2091580616116267 0  0.5542923819761738 0.2068836288630458 0  0.5822765343299726 0.2030361184149906 0  0.6115813590080894 0.1975537841746478 0  0.6434294166363886 0.1902616682371557 0  0.680126216920536 0.1811918039768476 0  0.7251220308220186 0.1725950460216442 0  0.7762225397789821 0.172193728221533 0  0.8203555252452837 0.1796444708862064 0  0.8566865728008389 0.1877524001912707 0  0.888398977752867 0.1941857458969744 0  0.9176418721495767 0.1986668940119309 0  0.9455949986298218 0.2011929068369193 0  0.9729181674279069 0.2016819415145686 0  1 0.2 0  0 0.2333333333333333 0  0.02627632827846573 0.2340405070687621 0  0.05275906429450844 0.2340208609299576 0  0.07974480257522445 0.2332766486665148 0  0.1077535501165162 0.2317539770737857 0  0.1377995370535162 0.2292369641623608 0  0.1722520508102975 0.2251232347433759 0  0.2184477292377636 0.2184477292377636 0  0.2824584981516373 0.2177853456260411 0  0.3278123104779326 0.224264799109832 0  0.362214261660356 0.2287739975672285 0  0.3922524792478649 0.231779278649859 0  0.420254468631398 0.2338809236877082 0  0.4472351241178917 0.2353398030922782 0  0.4737168644281055 0.2362493741740332 0  0.4999985359692413 0.2366307297662241 0  0.526282322907356 0.2364815524681065 0  0.552769579544284 0.2357953727601701 0  0.5797574089856502 0.2345480466610002 0  0.6077662862428774 0.2326509300510821 0  0.6378108251354337 0.2298512190495668 0  0.6722605049867125 0.2255055665186184 0  0.7184517687896865 0.2185755615228067 0  0.7824568944560072 0.2175430657549577 0  0.8278062581190709 0.2237774601028019 0  0.8622051108322211 0.2280661662760076 0  0.8922415185621828 0.2308029915319472 0  0.9202431936184331 0.2325470795825477 0  0.9472254338155353 0.2335221946480059 0  0.9737111981398645 0.2337863853978267 0  1 0.2333333333333333 0  0 0.2666666666666667 0  0.02647498854861688 0.2662108934544621 0  0.05312205196872991 0.2664728813190889 0  0.08022085361759533 0.2674466804238286 0  0.1082813611103057 0.2691905451376387 0  0.1383112000541347 0.2719283691240205 0  0.1726291773438388 0.2762195243478431 0  0.2177853456260412 0.2824584981516374 0  0.2814319967890397 0.2814319967890396 0  0.32742582616241 0.2745039113946381 0  0.3617919413168504 0.2701587114055896 0  0.3918276532298616 0.2673584058333471 0  0.419892895511056 0.2654596108955081 0  0.446993746
[...]
<CellData  Scalars="q"> 
<DataArray  type="Float64"  Name="q"  format="ascii">1.0133283664061874e+00   1.0133283664061874e+00   1.0000000000000000e+00   1.0000000000000000e+00   1.0000000000000000e+00   1.0000000000000000e+00   1.0000000000000000e+00   1.0000000000000000e+00   1.0022191680243735e+00   1.0000000000000000e+00   1.0154782367573776e+00   1.0049775342231335e+00   1.0244044139740291e+00   1.0175989136394643e+00   1.0241223345917072e+00   1.0224587273003414e+00   1.0144566105894863e+00   1.0167806598912452e+00   1.0003567728937721e+00   1.0034683315373818e+00   1.0000000000000000e+00   1.0000000000000000e+00   1.0000000000000000e+00   1.0000000000000000e+00   1.0103208334767575e+00   1.0000000000000000e+00   1.0477450912934541e+00   1.0000000000000000e+00   1.0959097163392288e+00   1.0304145402362799e+00   1.0765213220865344e+00   1.0526342530259907e+00   1.0254087187476506e+00   1.0194286547326556e+00   1.0000000000000000e+00   1.0000000000000000e+00   1.0000000000000000e+00   1.0000000000000000e+00   1.0000000000000000e+00   1.0000000000000000e+00   1.0107385543852609e+00   1.0000000000000000e+00   1.0222476628272563e+00   1.0140844369061748e+00   1.0253021512827603e+00   1.0220071786126814e+00   1.0185745934464934e+00   1.0195054250569178e+00   1.0059124091744844e+00   1.0084176961605196e+00   1.0000000000000000e+00   1.0000000000000000e+00   1.0000000000000000e+00   1.0000000000000000e+00   1.0000000000000000e+00   1.0000000000000000e+00   1.0181933258992468e+00   1.0000000000000000e+00   1.0035475689427307e+00   1.0216216216259393e+00   1.0000000000000000e+00   1.0000000000000000e+00   1.0011743602547942e+00   1.0011743602547942e+00   1.0000000000000000e+00   1.0151941931671986e+00   1.0000000000000000e+00   1.0112717810637233e+00   1.0000000000000000e+00   1.0081427426704073e+00   1.0070792022560131e+00   1.0104112576992823e+00   1.0164924089000946e+00   1.0157006640562245e+00   1.0193657571213659e+00   1.0191331482919643e+00   1.0142984610924419e+00   1.0181118044277966e+00   1.0054289087356003e+00   1.0148037018108571e+00   1.0000000000000000e+00   1.0141942465556462e+00   1.0002149192342347e+00   1.0194077485393196e+00   1.0057273750391720e+00   1.0269947903204586e+00   1.0025528867340336e+00   1.0265469470091699e+00   1.0000000000000000e+00   1.0058545889594206e+00   1.0161534950115798e+00   1.0049516992413359e+00   1.0210196062547316e+00   1.0324614864477826e+00   1.0042752500644661e+00   1.0343980033950615e+00   1.0000000000000000e+00   1.0191715734918605e+00   1.0000000000000000e+00   1.0095741995792731e+00   1.0033328876755991e+00   1.0089117184444134e+00   1.0140404658943649e+00   1.0138705397349628e+00   1.0192144246658688e+00   1.0184789821650617e+00   1.0162244422079854e+00   1.0188148565112738e+00   1.0081122079362226e+00   1.0157144283298312e+00   1.0006679354329826e+00   1.0131569304639430e+00   1.0000000000000000e+00   1.0135806895052828e+00   1.0000000000000000e+00   1.0137824811873717e+00   1.0004189440499087e+00   1.0054229213519663e+00   1.0181933265983734e+00   1.0000000000000000e+00   1.0000000000000000e+00   1.0000000000000000e+00   1.0151941931671984e+00   1.0000000000000000e+00   1.0511460160936379e+00   1.0511460160936377e+00   1.0508679302153905e+00   1.0651791173247702e+00   1.0390319717913072e+00   1.0582878844874100e+00   1.0278411803445633e+00   1.0415658627687334e+00   1.0217891917654738e+00   1.0274917305526707e+00   1.0213749500960327e+00   1.0224675320741785e+00   1.0265641820414282e+00   1.0288921823587922e+00   1.0375348965670159e+00   1.0452195805063591e+00   1.0530797356283661e+00   1.0664056096104308e+00   1.0678112372610964e+00   1.0837940830531589e+00   1.0700209904129105e+00   1.0857820028438785e+00   1.0481968557511461e+00   1.0621926282868244e+00   1.0136308752190002e+00   1.0228515965951099e+00   1.0205355548309250e+00   1.0117725781864824e+00   1.0685026532004260e+00   1.0574269629408213e+00   1.0850856355140481e+00   1.0940494959640614e+00   1.0692875356599083e+00   1.0937160266061201e+00   1.0473232700981836e+00   1.0733373471441912e+00   1.0306665936411186e+00   1.0484598946192576e+00   1.0222498009986745e+00   1.0298595344495631e+00   1.0209192206162523e+00   1.0223837463540968e+00   1.0249084909640558e+00   1.0266376101111885e+00   1.0328010108846566e+00   1.0393051555750092e+00   1.0421751109095718e+00   1.0539142975445472e+00   1.0465391938806690e+00   1.0609206314414013e+00   1.0351659022225512e+00   1.0493637245407172e+00   1.0000000000000000e+00   1.0137824819473638e+00   1.0000000000000000e+00   1.0000000000000000e+00   1.0000000000000000e+00   1.0000000000000000e+00   1.0112717810637228e+00   1.0000000000000000e+00   1.0651791173247700e+00   1.0508679302153903e+00   1.0901789247022511e+00   1.0901789247022511e+00   1.0842739929629097e+00   1.1016040326807937e+00   1.0581749255056729e+00   1.0798291508842963e+00   1.0337045140357273e+00   1.0469529124389649e+00   1.0292086263872455e+00   1.0306297901100625e+00   1.0489092723097257e+00   1.0461301946546948e+00   1.0807915796952081e+00   1.0821178191041712e+00   1.1078320938342310e+00   1.1145117195209373e+00   1.1155113256556883e+00   1.1249381731159085e+00   1.0950669567968194e+00   1.1061146775718276e+00   1.0509422622683431e+00   1.0636017906834783e+00   1.0121389846856774e+00   1.0197631696547838e+00   1.0196408271287190e+00   1.0091529570357274e+00   1.0678185444584556e+00   1.0464213246003831e+00   1.1106364346162552e+00   1.0980934821005408e+00   1.1229114540559575e+00   1.1303811302861382e+00   1.1036783777340535e+00   1.1275696283934682e+00   1.0681028980776346e+00   1.0949912922887548e+00   1.0371821571788165e+00   1.0537676527905655e+00   1.0278286025911891e+00   1.0310820205391358e+00   1.0425075089660250e+00   1.0405700502966713e+00   1.0675086338149884e+00   1.0693558263291321e+00   1.0846604207251338e+00   1.0923008973446118e+00   1.0793993324886046e+00   1.0911075847303942e+00   1.0465391944956064e+00   1.0609206320758688e+00   1.0000000000000000e+00   1.0135806902306914e+00   1.0000000000000000e+00   1.0000000000000000e+00   1.0000000000000000e+00   1.0022191680243733e+00   1.0081427426704066e+00   1.0000000000000000e+00   1.0582878844874095e+00   1.0390319717913066e+00   1.1016040326807941e+00   1.0842739929629102e+00   1.1142746883957144e+00   1.1142746883957149e+00   1.0917619933999856e+00   1.1075256598075942e+00   1.0527329519878816e+00   1.0693453486597722e+00   1.0401092259261500e+00   1.0409061429943300e+00   1.0716100680353848e+00   1.0629887410565027e+00   1.1127382386253521e+00   1.1078947221093034e+00   1.1326169305474303e+00   1.1317371332373862e+00   1.1207526630511242e+00   1.1225948721714833e+00   1.0835115718193351e+00   1.0884455579162553e+00   1.0376255736083557e+00   1.0452335960705563e+00   1.0068269007613138e+00   1.0113103111550739e+00   1.0105027746037234e+00   1.0033814010099762e+00   1.0481059263708958e+00   1.0272400114169729e+00   1.0987250393098034e+00   1.0721426141318786e+00   1.1364431374953050e+00   1.1178765250075626e+00   1.1391773636371849e+00   1.1404809312708764e+00   1.1073236061682712e+00   1.1262012172749187e+00   1.0594397770212267e+00   1.0795646328102351e+00   1.0380246127192070e+00   1.0420576075476848e+00   1.0615470666714300e+00   1.0550936515090210e+00   1.0945568968008073e+00   1.0919401314309947e+00   1.1053612513772189e+00   1.1082725403432527e+00   1.0846604213080975e+00   1.0923008981810247e+00   1.0421751117922577e+00   1.0539142984039458e+00   1.0006679358811470e+00   1.0131569310158415e+00   1.0000000000000000e+00   1.0000000000000000e+00   1.0049775342231335e+00   1.0154782367573774e+00   1.0104112576992819e+00   1.0070792022560127e+00   1.0415658627687330e+00   1.0278411803445624e+00   1.0798291508842974e+00   1.0581749255056732e+00   1.1075256598075958e+00   1.0917619933999876e+00   1.1123215322507998e+00   1.1123215322508007e+00   1.0678261215696188e+00   1.0806773151565325e+00   1.0418342421290270e+00   1.0384024509227006e+00   1.0774573559212512e+00   1.0629941789457242e+00   1.1129027862361052e+00   1.0999256745874191e+00   1.1133045663840528e+00   1.1051308526441601e+00   1.0880410371819496e+00   1.0826455152217966e+00   1.0524795443640473e+00   1.0513380667790930e+00   1.0206990536632099e+00   1.0231506307991454e+00   1.0025748192610009e+00   1.0049307799452052e+00   1.0038401956663510e+00   1.0004959820457870e+00   1.0248469685747192e+00   1.0113963688146770e+00   1.0601507781094404e+00   1.0363591999977146e+00   1.0995504859111120e+00   1.0706858648258673e+00   1.1256597239524964e+00   1.1050844760640026e+00   1.1276220636824859e+00   1.1261910008911518e+00   1.0758732365995889e+00   1.0907365481155757e+00   1.0390118556374905e+00   1.0394035930313998e+00   1.0673489293135359e+00   1.0553020442598071e+00   1.0975804273105536e+00   1.0882845723566823e+00   1.0945568960811904e+00   1.0919401337773360e+00   1.0675086351518948e+00   1.0693558261799372e+00   1.0328010116064956e+00   1.0393051566160800e+00   1.0081122080859155e+00   1.0157144286219302e+00   1.0059124088720495e+00   1.0084176959579316e+00   1.0175989136394636e+00   1.0244044139740285e+00   1.0157006640562241e+00   1.0164924089000942e+00   1.0274917305526701e+00   1.0217891917654733e+00   1.0469529124389649e+00   1.0337045140357271e+00   1.0693453486597730e+00   1.0527329519878816e+00   1.0806773151565330e+00   1.0678261215696190e+00   1.0404887670255891e+00   1.0404887670255889e+00   1.0146921505130693e+00   1.0073843742493824e+00   1.0532661293884265e+00   1.0208812022815472e+00   1.0713872151380741e+00   1.0558991908998898e+00   1.0633211893992258e+00   1.0520786980851660e+00   1.0416039856327630e+00   1.0344108924002657e+00   1.0213844284228468e+00   1.0179505634580164e+00   1.0076711328648329e+00   1.0070773865816123e+00   1.0009360673673928e+00   1.0016148471916997e+00   1.0007574841146043e+00   1.0001231351392899e+00   1.0076673402875860e+00   1.0024967895721266e+00   1.0227711945833557e+00   1.0104096319068034e+00   1.0452623140090007e+00   1.0253603583526874e+00   1.0705873745255283e+00   1.0470410916876496e+00   1.0846365474720776e+00   1.0656619403219336e+00   1.0449062347064253e+00   1.0421383456292275e+00   1.0136465536574355e+00   1.0082712990715776e+00   1.0483112816324074e+00   1.0188400274651692e+00   1.0673489170376229e+00   1.0553020663586721e+00   1.0615470691686308e+00   1.0550936286320727e+00   1.0425075094181719e+00   1.0405700531943149e+00   1.0249084917943512e+00   1.0266376112812445e+00   1.0162244423804787e+00   1.0188148570335127e+00   1.0185745932632453e+00   1.0195054251549782e+00   1.0224587273003414e+00   1.0241223345917074e+00   1.0191331482919641e+00   1.0193657571213659e+00   1.0224675320741785e+00   1.0213749500960325e+00   1.0306297901100627e+00   1.0292086263872455e+00   1.0409061429943300e+00   1.0401092259261504e+00   1.0384024509227003e+00   1.0418342421290272e+00   1.0073843742493822e+00   1.0146921505130693e+00   1.0032422767982072e+00   1.0032422767982072e+00   1.0117798486739797e+00   1.0076813568212006e+00   1.0327260818970267e+00   1.0339657739615453e+00   1.0273696621345723e+00   1.0323233302742094e+00   1.0143277667062987e+00   1.0184083424462751e+00   1.0053382133810507e+00   1.0075750488741750e+00   1.0013949788917065e+00   1.0019334014032704e+00   1.0004023869761007e+00   1.0003054118958432e+00   1.0004380277198539e+00   1.0004545156400602e+00   1.0019376426080768e+00   1.0018904653429490e+00   1.0072086475905784e+00   1.0064179823812316e+00   1.0176034948283237e+00   1.0160348219615740e+00   1.0309777981355450e+00   1.0296945713633288e+00   1.0328819790621622e+00   1.0356726486871861e+00   1.0067696982744960e+00   1.0128655686253791e+00   1.0033944862769819e+00   1.0030914632853929e+00   1.0136466389236682e+00   1.0082713315570679e+00   1.0390118221821645e+00   1.0394035654521745e+00   1.0380246058774645e+00   1.0420576475626651e+00   1.0278286058995987e+00   1.0310820258778290e+00   1.0209192218992356e+00   1.0223837490081364e+00   1.0192144255410633e+00   1.0184789836051062e+00   1.0253021516932113e+00   1.0220071794279866e+00   1.0167806598912454e+00   1.0144566105894866e+00   1.0181118044277970e+00   1.0142984610924421e+00   1.0288921823587920e+00   1.0265641820414277e+00   1.0461301946546948e+00   1.0489092723097255e+00   1.0629887410565022e+00   1.0716100680353842e+00   1.0629941789457242e+00   1.0774573559212506e+00   1.0208812022815472e+00   1.0532661293884267e+00   1.0076813568212009e+00   1.0117798486739797e+00   1.0467735820722865e+00   1.0467735820722870e+00   1.0743394176392795e+00   1.0954556239731117e+00   1.0549557565560017e+00   1.0822991921533722e+00   1.0308730958655832e+00   1.0545954574774268e+00   1.0133897512333325e+00   1.0286305505181224e+00   1.0033830356482858e+00   1.0101527010960223e+00   1.0000309660709430e+00   1.0011218518148248e+00   1.0020192568444877e+00   1.0011791500825584e+00   1.0092703781555001e+00   1.0098495631112401e+00   1.0226482214408885e+00   1.0268855637650107e+00   1.0416219462557599e+00   1.0507705803088587e+00   1.0609383960572560e+00   1.0751504063935893e+00   1.0640515359707681e+00   1.0824086720493373e+00   1.0230567668603761e+00   1.0585881274008742e+00   1.0067697194517620e+00   1.0128656516508547e+00   1.0449062927392996e+00   1.0421383965112563e+00   1.0758732666962323e+00   1.0907366996676420e+00   1.0594398199874575e+00   1.0795647031068469e+00   1.0371821606094662e+00   1.0537676528767890e+00   1.0222498040405861e+00   1.0298595401313193e+00   1.0140404675354504e+00   1.0138705412308171e+00   1.0222476638356413e+00   1.0140844381275298e+00   1.0034683315373818e+00   1.0003567728937721e+00   1.0148037018108571e+00   1.0054289087356008e+00   1.0452195805063584e+00   1.0375348965670157e+00   1.0821178191041714e+00   1.0807915796952081e+00   1.1078947221093023e+00   1.1127382386253524e+00   1.0999256745874184e+00   1.1129027862361038e+00   1.0558991908998898e+00   1.0713872151380746e+00   1.0339657739615449e+00   1.0327260818970270e+00   1.0954556239731132e+00   1.0743394176392806e+00   1.1433893068464878e+00   1.1433893068464891e+00   1.1239009185595294e+00   1.1478397778329186e+00   1.0856866801493945e+00   1.1203160890119861e+00   1.0453982256185999e+00   1.0744082635776622e+00   1.0151131368712263e+00   1.0320148949940735e+00   1.0014881332521544e+00   1.0063307425885686e+00   1.0068213281154894e+00   1.0045724010064556e+00   1.0291957996425216e+00   1.0266125451100365e+00   1.0631934991717684e+00   1.0651515110253726e+00   1.0996632718813921e+00   1.1074111485974087e+00   1.1237045964512449e+00   1.1354977887103761e+00   1.1128804367766196e+00   1.1304219648714693e+00   1.0640515741184968e+00   1.0824086573512375e+00   1.0328819605143116e+00   1.0356726313123712e+00   1.0846366904155040e+00   1.0656619548456856e+00   1.1276223285736235e+00   1.1261912763717004e+00   1.1073236557434352e+00   1.1262011975859179e+00   1.0681029063836605e+00   1.0949913025758937e+00   1.0306665977075640e+00   1.0484598994060241e+00   1.0033328889635393e+00   1.0089117195411095e+00   1.0107385553912889e+00   1.0000000000000000e+00   1.0000000000000000e+00   1.0000000000000000e+00   1.0141942465556468e+00   1.0000000000000000e+00   1.0664056096104300e+00   1.0530797356283659e+00   1.1145117195209362e+00   1.1078320938342290e+00   1.1317371332373865e+00   1.1326169305474298e+00   1.1051308526441610e+00   1.1133045663840537e+00   1.0520786980851653e+00   1.0633211893992254e+00   1.0323233302742103e+00   1.0273696621345723e+00   1.0822991921533729e+00   1.0549557565560019e+00   1.1478397778329203e+00   1.1239009185595303e+00   1.1715699903298034e+00   1.1715699903298036e+00   1.1468624515245787e+00   1.1724019603235194e+00   1.0919734039928291e+00   1.1270750960036942e+00   1.0372728225157757e+00   1.0648923568391147e+00   1.0079366895870137e+00   1.0184123435254906e+00   1.0173341574343087e+00   1.0133984333390653e+00   1.0588184379011671e+00   1.0511190167400224e+00   1.1119719869669458e+00   1.1084390329010216e+00   1.1529597937113154e+00   1.1549659293541585e+00   1.1602833869757272e+00   1.1671484437367059e+00   1.1237046009730833e+00   1.1354977881943702e+00   1.0609383739780940e+00   1.0751504126668419e+00   1.0309778265507958e+00   1.0296945647903755e+00   1.0705874399584208e+00   1.0470411197246074e+00   1.1256597155710202e+00   1.1050845405456102e+00   1.1391773035419099e+00   1.1404808662264052e+00   1.1036783821190075e+00   1.1275696467320804e+00   1.0473232709153257e+00   1.0733373460041704e+00   1.0000000000000000e+00   1.0095742008131245e+00   1.0000000000000000e+00   1.0000000000000000e+00   1.0000000000000000e+00   1.0000000000000000e+00   1.0194077485393214e+00   1.0002149192342356e+00   1.0837940830531587e+00   1.0678112372610979e+00   1.1249381731159063e+00   1.1155113256556870e+00   1.1225948721714822e+00   1.1207526630511226e+00   1.0826455152217982e+00   1.0880410371819504e+00   1.0344108924002648e+00   1.0416039856327637e+00   1.0184083424462749e+00   1.0143277667062978e+00   1.0545954574774254e+00   1.0308730958655827e+00   1.1203160890119845e+00   1.0856866801493910e+00   1.1724019603235172e+00   1.1468624515245753e+00   1.1794285724973070e+00   1.1794285724973044e+00   1.1356441724874344e+00   1.1609391490561745e+00   1.0676762438168930e+00   1.0993352312914588e+00   1.0210061867038502e+00   1.0362395048984407e+00   1.0340237781384281e+00   1.0274420521559766e+00   1.0905100113920418e+00   1.0780009979085097e+00   1.1475616118640994e+00   1.1392744140100559e+00   1.1721300543794664e+00   1.1691125745841773e+00   1.1529597950745405e+00   1.1549659301841835e+00   1.0996632726610673e+00   1.1074111510668692e+00   1.0416219506633992e+00   1.0507705819131123e+00   1.0176034992771257e+00   1.0160348248771673e+00   1.0452623152707490e+00   1.0253603590469935e+00   1.0995504959888320e+00   1.0706858764294460e+00   1.1364431517921769e+00   1.1178765247510876e+00   1.1229114657599228e+00   1.1303811432102981e+00   1.0692875328530527e+00   1.0937160227192830e+00   1.0000000000000000e+00   1.0191715730306559e+00   1.0000000000000000e+00   1.0000000000000000e+00   1.0000000000000000e+00   1.0103208334767579e+00   1.0269947903204593e+00   1.0057273750391720e+00   1.0857820028438796e+00   1.0700209904129117e+00   1.1061146775718271e+00   1.0950669567968192e+00   1.0884455579162544e+00   1.0835115718193342e+00   1.0513380667790937e+00   1.0524795443640469e+00   1.0179505634580162e+00   1.0213844284228473e+00   1.0075750488741744e+00   1.0053382133810498e+00   1.0286305505181208e+00   1.0133897512333321e+00   1.0744082635776586e+00   1.0453982256185967e+00   1.1270750960036884e+00   1.0919734039928248e+00   1.1609391490561700e+00   1.1356441724874276e+00   1.1551704364774347e+00   1.1551704364774329e+00   1.1012787301863076e+00   1.1264691212744480e+00   1.0369833729568738e+00   1.0570517184524173e+00   1.0490739561978253e+00   1.0400137057378886e+00   1.1090861138278350e+00   1.0921781066876000e+00   1.1494324441025869e+00   1.1374003433375361e+00   1.1475616125746593e+00   1.1392744145728193e+00   1.1119719883318886e+00   1.1084390341286383e+00   1.0631935012822282e+00   1.0651515125307718e+00   1.0226482234458751e+00   1.0268855654304641e+00   1.0072086488025491e+00   1.0064179833648699e+00   1.0227711981545546e+00   1.0104096329124173e+00   1.0601507823265583e+00   1.0363592033451374e+00   1.0987250383293607e+00   1.0721426143745529e+00   1.1106364313282897e+00   1.0980934792597878e+00   1.0850856288796968e+00   1.0940494893496358e+00   1.0042752486027702e+00   1.0343979983786509e+00   1.0000000000000000e+00   1.0000000000000000e+00   1.0000000000000000e+00   1.0477450912934549e+00   1.0265469470091695e+00   1.0025528867340334e+00   1.0621926282868246e+00   1.0481968557511459e+00   1.0636017906834785e+00   1.0509422622683438e+00   1.0452335960705557e+00   1.0376255736083562e+00   1.0231506307991451e+00   1.0206990536632095e+00   1.0070773865816127e+00   1.0076711328648331e+00   1.0019334014032699e+00   1.0013949788917063e+00   1.0101527010960210e+00