<?xml version="1.0"?>
<VTKFile type="UnstructuredGrid"  version="0.1"  >
<UnstructuredGrid>
<Piece  NumberOfPoints="2601" NumberOfCells="5000">
<Points>
<DataArray  type="Float64"  NumberOfComponents="3"  format="ascii">0 0 0  0.02 0 0  0.04 0 0  0.06 0 0  0.08 0 0  0.1 0 0  0.12 0 0  0.14 0 0  0.16 0 0  0.18 0 0  0.2 0 0  0.22 0 0  0.24 0 0  0.26 0 0  0.28 0 0  0.3 0 0  0.32 0 0  0.34 0 0  0.36 0 0  0.38 0 0  0.4 0 0  0.42 0 0  0.44 0 0  0.46 0 0  0.48 0 0  0.5 0 0  0.52 0 0  0.54 0 0  0.5600000000000001 0 0  0.58 0 0  0.6 0 0  0.62 0 0  0.64 0 0  0.66 0 0  0.68 0 0  0.7 0 0  0.72 0 0  0.74 0 0  0.76 0 0  0.78 0 0  0.8 0 0  0.82 0 0  0.84 0 0  0.86 0 0  0.88 0 0  0.9 0 0  0.92 0 0  0.9399999999999999 0 0  0.96 0 0  0.98 0 0  1 0 0  0 0.01313563088723984 0  0.02 0.01313563088723984 0  0.04 0.01313563088723984 0  0.06 0.01313563088723984 0  0.08 0.01313563088723984 0  0.1 0.01313563088723984 0  0.12 0.01313563088723984 0  0.14 0.01313563088723984 0  0.16 0.01313563088723984 0  0.18 0.01313563088723984 0  0.2 0.01313563088723984 0  0.22 0.01313563088723984 0  0.24 0.01313563088723984 0  0.26 0.01313563088723984 0  0.28 0.01313563088723984 0  0.3 0.01313563088723984 0  0.32 0.01313563088723984 0  0.34 0.01313563088723984 0  0.36 0.01313563088723984 0  0.38 0.01313563088723984 0  0.4 0.01313563088723984 0  0.42 0.01313563088723984 0  0.44 0.01313563088723984 0  0.46 0.01313563088723984 0  0.48 0.01313563088723984 0  0.5 0.01313563088723984 0  0.52 0.01313563088723984 0  0.54 0.01313563088723984 0  0.5600000000000001 0.01313563088723984 0  0.58 0.01313563088723984 0  0.6 0.01313563088723984 0  0.62 0.01313563088723984 0  0.64 0.01313563088723984 0  0.66 0.01313563088723984 0  0.68 0.01313563088723984 0  0.7 0.01313563088723984 0  0.72 0.01313563088723984 0  0.74 0.01313563088723984 0  0.76 0.01313563088723984 0  0.78 0.01313563088723984 0  0.8 0.01313563088723984 0  0.82 0.01313563088723984 0  0.84 0.01313563088723984 0  0.86 0.01313563088723984 0  0.88 0.01313563088723984 0  0.9 0.01313563088723984 0  0.92 0.01313563088723984 0  0.9399999999999999 0.01313563088723984 0  0.96 0.01313563088723984 0  0.98 0.01313563088723984 0  1 0.01313563088723984 0  0 0.02664639863733726 0  0.02 0.02664639863733726 0  0.04 0.02664639863733726 0  0.06 0.02664639863733726 0  0.08 0.02664639863733726 0  0.1 0.02664639863733726 0  0.12 0.02664639863733726 0  0.14 0.02664639863733726 0  0.16 0.02664639863733726 0  0.18 0.02664639863733726 0  0.2 0.02664639863733726 0  0.22 0.02664639863733726 0  0.24 0.02664639863733726 0  0.26 0.02664639863733726 0  0.28 0.02664639863733726 0  0.3 0.02664639863733726 0  0.32 0.02664639863733726 0  0.34 0.02664639863733726 0  0.36 0.02664639863733726 0  0.38 0.02664639863733726 0  0.4 0.02664639863733726 0  0.42 0.02664639863733726 0  0.44 0.02664639863733726 0  0.46 0.02664639863733726 0  0.48 0.02664639863733726 0  0.5 0.02664639863733726 0  0.52 0.02664639863733726 0  0.54 0.02664639863733726 0  0.5600000000000001 0.02664639863733726 0  0.58 0.02664639863733726 0  0.6 0.02664639863733726 0  0.62 0.02664639863733726 0  0.64 0.02664639863733726 0  0.66 0.02664639863733726 0  0.68 0.02664639863733726 0  0.7 0.02664639863733726 0  0.72 0.02664639863733726 0  0.74 0.02664639863733726 0  0.76 0.02664639863733726 0  0.78 0.02664639863733726 0  0.8 0.02664639863733726 0  0.82 0.02664639863733726 0  0.84 0.02664639863733726 0  0.86 0.02664639863733726 0  0.88 0.02664639863733726 0  0.9 0.02664639863733726 0  0.92 0.02664639863733726 0  0.9399999999999999 0.02664639863733726 0  0.96 0.02664639863733726 0  0.98 0.02664639863733726 0  1 0.02664639863733726 0  0 0.04101652939099896 0  0.02 0.04101652939099896 0  0.04 0.04101652939099896 0  0.06 0.04101652939099896 0  0.08 0.04101652939099896 0  0.1 0.04101652939099896 0  0.12 0.04101652939099896 0  0.14 0.04101652939099896 0  0.16 0.04101652939099896 0  0.18 0.04101652939099896 0  0.2 0.04101652939099896 0  0.22 0.04101652939099896 0  0.24 0.04101652939099896 0  0.26 0.04101652939099896 0  0.28 0.04101652939099896 0  0.3 0.04101652939099896 0  0.32 0.04101652939099896 0  0.34 0.04101652939099896 0  0.36 0.04101652939099896 0  0.38 0.04101652939099896 0  0.4 0.04101652939099896 0  0.42 0.04101652939099896 0  0.44 0.04101652939099896 0  0.46 0.04101652939099896 0  0.48 0.04101652939099896 0  0.5 0.04101652939099896 0  0.52 0.04101652939099896 0  0.54 0.04101652939099896 0  0.5600000000000001 0.04101652939099896 0  0.58 0.04101652939099896 0  0.6 0.04101652939099896 0  0.62 0.04101652939099896 0  0.64 0.04101652939099896 0  0.66 0.04101652939099896 0  0.68 0.04101652939099896 0  0.7 0.04101652939099896 0  0.72 0.04101652939099896 0  0.74 0.04101652939099896 0  0.76 0.04101652939099896 0  0.78 0.04101652939099896 0  0.8 0.04101652939099896 0  0.82 0.04101652939099896 0  0.84 0.04101652939099896 0  0.86 0.04101652939099896 0  0.88 0.04101652939099896 0  0.9 0.04101652939099896 0  0.92 0.04101652939099896 0  0.9399999999999999 0.04101652939099896 0  0.96 0.04101652939099896 0  0.98 0.04101652939099896 0  1 0.04101652939099896 0  0 0.05705811164099547 0  0.02 0.05705811164099547 0  0.04 0.05705811164099547 0  0.06 0.05705811164099547 0  0.08 0.05705811164099547 0  0.1 0.05705811164099547 0  0.12 0.05705811164099547 0  0.14 0.05705811164099547 0  0.16 0.05705811164099547 0  0.18 0.05705811164099547 0  0.2 0.05705811164099547 0  0.22 0.05705811164099547 0  0.24 0.05705811164099547 0  0.26 0.05705811164099547 0  0.28 0.05705811164099547 0  0.3 0.05705811164099547 0  0.32 0.05705811164099547 0  0.34 0.05705811164099547 0  0.36 0.05705811164099547 0  0.38 0.05705811164099547 0  0.4 0.05705811164099547 0  0.42 0.05705811164099547 0  0.44 0.05705811164099547 0  0.46 0.05705811164099547 0  0.48 0.05705811164099547 0  0.5 0.05705811164099547 0  0.52 0.05705811164099547 0  0.54 0.05705811164099547 0  0.5600000000000001 0.05705811164099547 0  0.58 0.05705811164099547 0  0.6 0.05705811164099547 0  0.62 0.05705811164099547 0  0.64 0.05705811164099547 0  0.66 0.05705811164099547 0  0.68 0.05705811164099547 0  0.7 0.05705811164099547 0  0.72 0.05705811164099547 0  0.74 0.05705811164099547 0  0.76 0.05705811164099547 0  0.78 0.05705811164099547 0  0.8 0.05705811164099547 0  0.82 0.05705811164099547 0  0.84 0.05705811164099547 0  0.86 0.05705811164099547 0  0.88 0.05705811164099547 0  0.9 0.05705811164099547 0  0.92 0.05705811164099547 0  0.9399999999999999 0.05705811164099547 0  0.96 0.05705811164099547 0  0.98 0.05705811164099547 0  1 0.05705811164099547 0  0 0.07667714377545 0  0.02 0.07667714377545 0  0.04 0.07667714377545 0  0.06 0.07667714377545 0  0.08 0.07667714377545 0  0.1 0.07667714377545 0  0.12 0.07667714377545 0  0.14 0.07667714377545 0  0.16 0.07667714377545 0  0.18 0.07667714377545 0  0.2 0.07667714377545 0  0.22 0.07667714377545 0  0.24 0.07667714377545 0  0.26 0.07667714377545 0  0.28 0.07667714377545 0  0.3 0.07667714377545 0  0.32 0.07667714377545 0  0.34 0.07667714377545 0  0.36 0.07667714377545 0  0.38 0.07667714377545 0  0.4 0.07667714377545 0  0.42 0.07667714377545 0  0.44 0.07667714377545 0  0.46 0.07667714377545 0  0.48 0.07667714377545 0  0.5 0.07667714377545 0  0.52 0.07667714377545 0  0.54 0.07667714377545 0  0.5600000000000001 0.07667714377545 0  0.58 0.07667714377545 0  0.6 0.07667714377545 0  0.62 0.07667714377545 0  0.64 0.07667714377545 0  0.66 0.07667714377545 0  0.68 0.07667714377545 0  0.7 0.07667714377545 0  0.72 0.07667714377545 0  0.74 0.07667714377545 0  0.76 0.07667714377545 0  0.78 0.07667714377545 0  0.8 0.07667714377545 0  0.82 0.07667714377545 0  0.84 0.07667714377545 0  0.86 0.07667714377545 0  0.88 0.07667714377545 0  0.9 0.07667714377545 0  0.92 0.07667714377545 0  0.9399999999999999 0.07667714377545 0  0.96 0.07667714377545 0  0.98 0.07667714377545 0  1 0.07667714377545 0  0 0.1098730133816912 0  0.02 0.1098730133816912 0  0.04 0.1098730133816912 0  0.06 0.1098730133816912 0  0.08 0.1098730133816912 0  0.1 0.1098730133816912 0  0.12 0.1098730133816912 0  0.14 0.1098730133816912 0  0.16 0.1098730133816912 0  0.18 0.1098730133816912 0  0.2 0.1098730133816912 0  0.22 0.1098730133816912 0  0.24 0.1098730133816912 0  0.26 0.1098730133816912 0  0.28 0.1098730133816912 0  0.3 0.1098730133816912 0  0.32 0.1098730133816912 0  0.34 0.1098730133816912 0  0.36 0.1098730133816912 0  0.38 0.1098730133816912 0  0.4 0.1098730133816912 0  0.42 0.1098730133816912 0  0.44 0.1098730133816912 0  0.46 0.1098730133816912 0  0.48 0.1098730133816912 0  0.5 0.1098730133816912 0  0.52 0.1098730133816912 0  0.54 0.1098730133816912 0  0.5600000000000001 0.1098730133816912 0  0.58 0.1098730133816912 0  0.6 0.1098730133816912 0  0.62 0.1098730133816912 0  0.64 0.1098730133816912 0  0.66 0.1098730133816912 0  0.68 0.1098730133816912 0  0.7 0.1098730133816912 0  0.72 0.1098730133816912 0  0.74 0.1098730133816912 0  0.76 0.1098730133816912 0  0.78 0.1098730133816912 0  0.8 0.1098730133816912 0  0.82 0.1098730133816912 0  0.84 0.1098730133816912 0  0.86 0.1098730133816912 0  0.88 0.1098730133816912 0  0.9 0.1098730133816912 0  0.92 0.1098730133816912 0  0.9399999999999999 0.1098730133816912 0  0.96 0.1098730133816912 0  0.98 0.1098730133816912 0  1 0.1098730133816912 0  0 0.1603283563168221 0  0.02 0.1603283563168221 0  0.04 0.1603283563168221 0  0.06 0.1603283563168221 0  0.08 0.1603283563168221 0  0.1 0.1603283563168221 0  0.12 0.1603283563168221 0  0.14 0.1603283563168221 0  0.16 0.1603283563168221 0  0.18 0.1603283563168221 0  0.2 0.1603283563168221 0  0.22 0.1603283563168221 0  0.24 0.1603283563168221 0  0.26 0.1603283563168221 0  0.28 0.1603283563168221 0  0.3 0.1603283563168221 0  0.32 0.1603283563168221 0  0.34 0.1603283563168221 0  0.36 0.1603283563168221 0  0.38 0.1603283563168221 0  0.4 0.1603283563168221 0  0.42 0.1603283563168221 0  0.44 0.1603283563168221 0  0.46 0.1603283563168221 0  0.48 0.1603283563168221 0  0.5 0.1603283563168221 0  0.52 0.1603283563168221 0  0.54 0.1603283563168221 0  0.5600000000000001 0.1603283563168221 0  0.58 0.1603283563168221 0 
[...]
<PointData  Vectors="u_paraw"> 
<DataArray  type="Float64"  Name="u_paraw"  NumberOfComponents="3" format="ascii">2.2303767331880985e-05 2.2232898533854160e-04 0.0000000000000000e+00  2.2303767329157198e-05 2.2232898532570464e-04 0.0000000000000000e+00  2.2303767347414823e-05 2.2232898532895725e-04 0.0000000000000000e+00  2.2303767337229513e-05 2.2232898534402763e-04 0.0000000000000000e+00  2.2303767339127910e-05 2.2232898533453002e-04 0.0000000000000000e+00  2.2303767330296230e-05 2.2232898532334116e-04 0.0000000000000000e+00  2.2303767330807973e-05 2.2232898533050742e-04 0.0000000000000000e+00  2.2303767332491770e-05 2.2232898532121613e-04 0.0000000000000000e+00  2.2303767339193938e-05 2.2232898532881639e-04 0.0000000000000000e+00  2.2303767332409228e-05 2.2232898531963287e-04 0.0000000000000000e+00  2.2303767339755203e-05 2.2232898533280625e-04 0.0000000000000000e+00  2.2303767337378079e-05 2.2232898533014995e-04 0.0000000000000000e+00  2.2303767336106978e-05 2.2232898532512977e-04 0.0000000000000000e+00  2.2303767327027686e-05 2.2232898531618510e-04 0.0000000000000000e+00  2.2303767337477125e-05 2.2232898533661215e-04 0.0000000000000000e+00  2.2303767339804727e-05 2.2232898534589224e-04 0.0000000000000000e+00  2.2303767338814258e-05 2.2232898531608753e-04 0.0000000000000000e+00  2.2303767355635712e-05 2.2232898532998768e-04 0.0000000000000000e+00  2.2303767337889819e-05 2.2232898533373834e-04 0.0000000000000000e+00  2.2303767334109535e-05 2.2232898532299389e-04 0.0000000000000000e+00  2.2303767344591991e-05 2.2232898533034546e-04 0.0000000000000000e+00  2.2303767341818680e-05 2.2232898531464554e-04 0.0000000000000000e+00  2.2303767344658023e-05 2.2232898533680663e-04 0.0000000000000000e+00  2.2303767332343197e-05 2.2232898533032378e-04 0.0000000000000000e+00  2.2303767327687999e-05 2.2232898531765962e-04 0.0000000000000000e+00  2.2303767352070025e-05 2.2232898534182649e-04 0.0000000000000000e+00  2.2303767331402255e-05 2.2232898533791252e-04 0.0000000000000000e+00  2.2303767333086048e-05 2.2232898532608387e-04 0.0000000000000000e+00  2.2303767340877735e-05 2.2232898533460695e-04 0.0000000000000000e+00  2.2303767330081629e-05 2.2232898531810414e-04 0.0000000000000000e+00  2.2303767342644070e-05 2.2232898531815835e-04 0.0000000000000000e+00  2.2303767339953297e-05 2.2232898532703797e-04 0.0000000000000000e+00  2.2303767329454333e-05 2.2232898532672355e-04 0.0000000000000000e+00  2.2303767329668934e-05 2.2232898531767046e-04 0.0000000000000000e+00  2.2303767340712655e-05 2.2232898533190728e-04 0.0000000000000000e+00  2.2303767338451087e-05 2.2232898532315652e-04 0.0000000000000000e+00  2.2303767334934925e-05 2.2232898532311316e-04 0.0000000000000000e+00  2.2303767329124177e-05 2.2232898532661513e-04 0.0000000000000000e+00  2.2303767336800305e-05 2.2232898532808964e-04 0.0000000000000000e+00  2.2303767336899353e-05 2.2232898532790533e-04 0.0000000000000000e+00  2.2303767334885400e-05 2.2232898531487447e-04 0.0000000000000000e+00  2.2303767338830765e-05 2.2232898533394434e-04 0.0000000000000000e+00  2.2303767339606633e-05 2.2232898532570440e-04 0.0000000000000000e+00  2.2303767333762868e-05 2.2232898532499967e-04 0.0000000000000000e+00  2.2303767335413651e-05 2.2232898532340589e-04 0.0000000000000000e+00  2.2303767331517807e-05 2.2232898532555261e-04 0.0000000000000000e+00  2.2303767338087913e-05 2.2232898533136518e-04 0.0000000000000000e+00  2.2303767331963519e-05 2.2232898533001952e-04 0.0000000000000000e+00  2.2303767340167898e-05 2.2232898533047489e-04 0.0000000000000000e+00  2.2303767339177428e-05 2.2232898533026889e-04 0.0000000000000000e+00  2.2303767331880981e-05 -4.4772591003722310e-15 0.0000000000000000e+00  1.5137302370215782e-05 1.2873985988904287e-04 0.0000000000000000e+00  1.5137302362512045e-05 1.2873985988711299e-04 0.0000000000000000e+00  1.5137302379524464e-05 1.2873985989207869e-04 0.0000000000000000e+00  1.5137302378015819e-05 1.2873985989160158e-04 0.0000000000000000e+00  1.5137302363763904e-05 1.2873985989225210e-04 0.0000000000000000e+00  1.5137302362158959e-05 1.2873985988255945e-04 0.0000000000000000e+00  1.5137302375993587e-05 1.2873985989528779e-04 0.0000000000000000e+00  1.5137302356092265e-05 1.2873985986889850e-04 0.0000000000000000e+00  1.5137302379460269e-05 1.2873985988500974e-04 0.0000000000000000e+00  1.5137302370055290e-05 1.2873985987091492e-04 0.0000000000000000e+00  1.5137302367776268e-05 1.2873985987874305e-04 0.0000000000000000e+00  1.5137302363635509e-05 1.2873985985940089e-04 0.0000000000000000e+00  1.5137302382605962e-05 1.2873985988505292e-04 0.0000000000000000e+00  1.5137302355610783e-05 1.2873985987375553e-04 0.0000000000000000e+00  1.5137302373714565e-05 1.2873985988223435e-04 0.0000000000000000e+00  1.5137302360393519e-05 1.2873985987317006e-04 0.0000000000000000e+00  1.5137302365850334e-05 1.2873985987191239e-04 0.0000000000000000e+00  1.5137302391015876e-05 1.2873985987891669e-04 0.0000000000000000e+00  1.5137302380872621e-05 1.2873985988871752e-04 0.0000000000000000e+00  1.5137302371275048e-05 1.2873985987286649e-04 0.0000000000000000e+00  1.5137302377245444e-05 1.2873985988798062e-04 0.0000000000000000e+00  1.5137302374805928e-05 1.2873985988652744e-04 0.0000000000000000e+00  1.5137302374934323e-05 1.2873985987854771e-04 0.0000000000000000e+00  1.5137302370376280e-05 1.2873985988665789e-04 0.0000000000000000e+00  1.5137302370729367e-05 1.2873985989591663e-04 0.0000000000000000e+00  1.5137302379139281e-05 1.2873985987941507e-04 0.0000000000000000e+00  1.5137302363089828e-05 1.2873985988522639e-04 0.0000000000000000e+00  1.5137302360810804e-05 1.2873985987408079e-04 0.0000000000000000e+00  1.5137302366749102e-05 1.2873985986876891e-04 0.0000000000000000e+00  1.5137302373233081e-05 1.2873985986072342e-04 0.0000000000000000e+00  1.5137302378336807e-05 1.2873985987961023e-04 0.0000000000000000e+00  1.5137302375704698e-05 1.2873985987687804e-04 0.0000000000000000e+00  1.5137302363057729e-05 1.2873985987898139e-04 0.0000000000000000e+00  1.5137302370183685e-05 1.2873985987549026e-04 0.0000000000000000e+00  1.5137302380230642e-05 1.2873985988151913e-04 0.0000000000000000e+00  1.5137302366460213e-05 1.2873985988151842e-04 0.0000000000000000e+00  1.5137302371050355e-05 1.2873985987644436e-04 0.0000000000000000e+00  1.5137302366684905e-05 1.2873985987052461e-04 0.0000000000000000e+00  1.5137302382349172e-05 1.2873985988659249e-04 0.0000000000000000e+00  1.5137302369702203e-05 1.2873985987956686e-04 0.0000000000000000e+00  1.5137302371628137e-05 1.2873985987720400e-04 0.0000000000000000e+00  1.5137302379941753e-05 1.2873985989108108e-04 0.0000000000000000e+00  1.5137302378433105e-05 1.2873985988184368e-04 0.0000000000000000e+00  1.5137302369702203e-05 1.2873985989305433e-04 0.0000000000000000e+00  1.5137302372013323e-05 1.2873985988732975e-04 0.0000000000000000e+00  1.5137302368546641e-05 1.2873985987512163e-04 0.0000000000000000e+00  1.5137302372719500e-05 1.2873985988334059e-04 0.0000000000000000e+00  1.5137302376154083e-05 1.2873985989153645e-04 0.0000000000000000e+00  1.5137302373939258e-05 1.2873985987258460e-04 0.0000000000000000e+00  1.5137302375159016e-05 1.2873985988620217e-04 0.0000000000000000e+00  1.5137302370215784e-05 3.6067556625784473e-04 0.0000000000000000e+00  -2.8040436853704973e-05 -2.2016077723444570e-04 0.0000000000000000e+00  -2.8040436852859950e-05 -2.2016077722334347e-04 0.0000000000000000e+00  -2.8040436842840414e-05 -2.2016077721336884e-04 0.0000000000000000e+00  -2.8040436848574488e-05 -2.2016077721766220e-04 0.0000000000000000e+00  -2.8040436869639655e-05 -2.2016077721176414e-04 0.0000000000000000e+00  -2.8040436871148624e-05 -2.2016077724793328e-04 0.0000000000000000e+00  -2.8040436856481470e-05 -2.2016077721844269e-04 0.0000000000000000e+00  -2.8040436864931680e-05 -2.2016077723158352e-04 0.0000000000000000e+00  -2.8040436856722904e-05 -2.2016077721545059e-04 0.0000000000000000e+00  -2.8040436862577694e-05 -2.2016077722455759e-04 0.0000000000000000e+00  -2.8040436850023094e-05 -2.2016077721874656e-04 0.0000000000000000e+00  -2.8040436861129085e-05 -2.2016077722663955e-04 0.0000000000000000e+00  -2.8040436847186238e-05 -2.2016077723466235e-04 0.0000000000000000e+00  -2.8040436848091618e-05 -2.2016077720872824e-04 0.0000000000000000e+00  -2.8040436842719698e-05 -2.2016077722637964e-04 0.0000000000000000e+00  -2.8040436865414550e-05 -2.2016077723049902e-04 0.0000000000000000e+00  -2.8040436852558159e-05 -2.2016077721957026e-04 0.0000000000000000e+00  -2.8040436844168304e-05 -2.2016077722351735e-04 0.0000000000000000e+00  -2.8040436846280858e-05 -2.2016077721909321e-04 0.0000000000000000e+00  -2.8040436856179678e-05 -2.2016077721636102e-04 0.0000000000000000e+00  -2.8040436860042630e-05 -2.2016077723635430e-04 0.0000000000000000e+00  -2.8040436846401574e-05 -2.2016077721050633e-04 0.0000000000000000e+00  -2.8040436855032864e-05 -2.2016077722785356e-04 0.0000000000000000e+00  -2.8040436854791429e-05 -2.2016077721549425e-04 0.0000000000000000e+00  -2.8040436857869719e-05 -2.2016077720629962e-04 0.0000000000000000e+00  -2.8040436868734275e-05 -2.2016077722893776e-04 0.0000000000000000e+00  -2.8040436851954570e-05 -2.2016077721198084e-04 0.0000000000000000e+00  -2.8040436858111154e-05 -2.2016077722173866e-04 0.0000000000000000e+00  -2.8040436868311765e-05 -2.2016077722147967e-04 0.0000000000000000e+00  -2.8040436868432484e-05 -2.2016077724043031e-04 0.0000000000000000e+00  -2.8040436844168304e-05 -2.2016077722911124e-04 0.0000000000000000e+00  -2.8040436855274299e-05 -2.2016077722516474e-04 0.0000000000000000e+00  -2.8040436856119319e-05 -2.2016077721987383e-04 0.0000000000000000e+00  -2.8040436864147019e-05 -2.2016077722160856e-04 0.0000000000000000e+00  -2.8040436868251409e-05 -2.2016077722859204e-04 0.0000000000000000e+00  -2.8040436866802800e-05 -2.2016077723275416e-04 0.0000000000000000e+00  -2.8040436861793030e-05 -2.2016077721978710e-04 0.0000000000000000e+00  -2.8040436848393409e-05 -2.2016077721813911e-04 0.0000000000000000e+00  -2.8040436848333053e-05 -2.2016077722577189e-04 0.0000000000000000e+00  -2.8040436852377083e-05 -2.2016077721957026e-04 0.0000000000000000e+00  -2.8040436861732674e-05 -2.2016077723331916e-04 0.0000000000000000e+00  -2.8040436851592419e-05 -2.2016077722312644e-04 0.0000000000000000e+00  -2.8040436860344424e-05 -2.2016077721861616e-04 0.0000000000000000e+00  -2.8040436852196005e-05 -2.2016077720764403e-04 0.0000000000000000e+00  -2.8040436862275900e-05 -2.2016077722169529e-04 0.0000000000000000e+00  -2.8040436862456979e-05 -2.2016077721293494e-04 0.0000000000000000e+00  -2.8040436865837060e-05 -2.2016077722976298e-04 0.0000000000000000e+00  -2.8040436865112759e-05 -2.2016077722668262e-04 0.0000000000000000e+00  -2.8040436859197609e-05 -2.2016077722464432e-04 0.0000000000000000e+00  -2.8040436855274299e-05 -2.2016077721831258e-04 0.0000000000000000e+00  -2.8040436853704973e-05 -1.5166360153555147e-04 0.0000000000000000e+00  -2.7249644812965094e-06 2.3396548632726236e-04 0.0000000000000000e+00  -2.7249644716721225e-06 2.3396548633836459e-04 0.0000000000000000e+00  -2.7249644834592928e-06 2.3396548632344599e-04 0.0000000000000000e+00  -2.7249644808639525e-06 2.3396548630020064e-04 0.0000000000000000e+00  -2.7249644676709730e-06 2.3396548632995115e-04 0.0000000000000000e+00  -2.7249644742674623e-06 2.3396548632960437e-04 0.0000000000000000e+00  -2.7249644778360558e-06 2.3396548633229286e-04 0.0000000000000000e+00  -2.7249644763221068e-06 2.3396548633931882e-04 0.0000000000000000e+00  -2.7249644725372358e-06 2.3396548633203298e-04 0.0000000000000000e+00  -2.7249644804313956e-06 2.3396548633177245e-04 0.0000000000000000e+00  -2.7249644696174780e-06 2.3396548632292568e-04 0.0000000000000000e+00  -2.7249644698337565e-06 2.3396548633506875e-04 0.0000000000000000e+00  -2.7249644787011691e-06 2.3396548631772119e-04 0.0000000000000000e+00  -2.7249644703744523e-06 2.3396548632387946e-04 0.0000000000000000e+00  -2.7249644822697616e-06 2.3396548632327293e-04 0.0000000000000000e+00  -2.7249644756732723e-06 2.3396548632743564e-04 0.0000000000000000e+00  -2.7249644710232876e-06 2.3396548631954265e-04 0.0000000000000000e+00  -2.7249644743756018e-06 2.3396548633290064e-04 0.0000000000000000e+00  -2.7249644814046484e-06 2.3396548630861389e-04 0.0000000000000000e+00  -2.7249644736186279e-06 2.3396548631754772e-04 0.0000000000000000e+00  -2.7249644812965089e-06 2.3396548632613522e-04 0.0000000000000000e+00  -2.7249644718884009e-06 2.3396548632309883e-04 0.0000000000000000e+00  -2.7249644731860711e-06 2.3396548633194592e-04 0.0000000000000000e+00  -2.7249644792418645e-06 2.3396548632604848e-04 0.0000000000000000e+00  -2.7249644744837412e-06 2.3396548632639480e-04 0.0000000000000000e+00  -2.7249644895150867e-06 2.3396548632249168e-04 0.0000000000000000e+00  -2.7249644784848906e-06 2.3396548635163503e-04 0.0000000000000000e+00  -2.7249644985987773e-06 2.3396548631659362e-04 0.0000000000000000e+00  -2.7249644745918802e-06 2.3396548633342174e-04 0.0000000000000000e+00  -2.7249644818372052e-06 2.3396548632353251e-04 0.0000000000000000e+00  -2.7249644841081277e-06 2.3396548629551673e-04 0.0000000000000000e+00  -2.7249644729697926e-06 2.3396548631251702e-04 0.0000000000000000e+00  -2.7249644652919112e-06 2.3396548633515516e-04 0.0000000000000000e+00  -2.7249644839999886e-06 2.3396548631702730e-04 0.0000000000000000e+00  -2.7249644795662824e-06 2.3396548633663097e-04 0.0000000000000000e+00  -2.7249644821616226e-06 2.3396548631086903e-04 0.0000000000000000e+00  -2.7249644843244061e-06 2.3396548632760911e-04 0.0000000000000000e+00  -2.7249644738349063e-06 2.3396548630644548e-04 0.0000000000000000e+00  -2.7249644774034989e-06 2.3396548633203266e-04 0.0000000000000000e+00  -2.7249644755651329e-06 2.3396548632492029e-04 0.0000000000000000e+00  -2.7249644772953599e-06 2.3396548633654424e-04 0.0000000000000000e+00  -2.7249644774034989e-06 2.3396548629022582e-04 0.0000000000000000e+00  -2.7249644552349679e-06 2.3396548634001238e-04 0.0000000000000000e+00  -2.7249644781604732e-06 2.3396548631442521e-04 0.0000000000000000e+00  -2.7249644710232876e-06 2.3396548633610926e-04 0.0000000000000000e+00  -2.7249644785930301e-06 2.3396548632101716e-04 0.0000000000000000e+00  -2.7249644763221072e-06 2.3396548632804409e-04 0.0000000000000000e+00  -2.7249644636698236e-06 2.3396548632917036e-04 0.0000000000000000e+00  -2.7249644688605042e-06 2.3396548633055814e-04 0.0000000000000000e+00  -2.7249644857302156e-06 2.3396548633437453e-04 0.0000000000000000e+00  -2.7249644812965094e-06 -1.4866356806672403e-04 0.0000000000000000e+00  1.2767687594320210e-04 6.4124122055812100e-04 0.0000000000000000e+00  1.2767687594771154e-04 6.4124122054875349e-04 0.0000000000000000e+00  1.2767687592746328e-04 6.4124122052611557e-04 0.0000000000000000e+00  1.2767687593577480e-04 6.4124122053210014e-04 0.0000000000000000e+00  1.2767687593993055e-04 6.4124122053444202e-04 0.0000000000000000e+00  1.2767687592189279e-04 6.4124122053400867e-04 0.0000000000000000e+00  1.2767687592719800e-04 6.4124122056297779e-04 0.0000000000000000e+00  1.2767687592825906e-04 6.4124122055144264e-04 0.0000000000000000e+00  1.2767687591393496e-04 6.4124122054693236e-04 0.0000000000000000e+00  1.2767687592489909e-04 6.4124122053938555e-04 0.0000000000000000e+00  1.2767687592313067e-04 6.4124122054701909e-04 0.0000000000000000e+00  1.2767687591207813e-04 6.4124122053669749e-04 0.0000000000000000e+00  1.2767687591384652e-04 6.4124122054086006e-04 0.0000000000000000e+00  1.2767687591685282e-04 6.4124122052169137e-04 0.0000000000000000e+00  1.2767687592781695e-04 6.4124122054840785e-04 0.0000000000000000e+00  1.2767687592083173e-04 6.4124122050755337e-04 0.0000000000000000e+00  1.2767687594125685e-04 6.4124122053010478e-04 0.0000000000000000e+00  1.2767687593356428e-04 6.4124122054250979e-04 0.0000000000000000e+00  1.2767687593091167e-04 6.4124122053279360e-04 0.0000000000000000e+00  1.2767687593568639e-04 6.4124122052203832e-04 0.0000000000000000e+00  1.2767687593533269e-04 6.4124122054545882e-04 0.0000000000000000e+00  1.2767687592764011e-04 6.4124122052993131e-04 0.0000000000000000e+00  1.2767687593214956e-04 6.4124122052732922e-04 0.0000000000000000e+00  1.2767687592339592e-04 6.4124122052360130e-04 0.0000000000000000e+00  1.2767687593073483e-04 6.4124122053739062e-04 0.0000000000000000e+00  1.2767687593029272e-04 6.4124122055430417e-04 0.0000000000000000e+00  1.2767687591941701e-04 6.4124122054207437e-04 0.0000000000000000e+00  1.2767687593471375e-04 6.4124122052481387e-04 0.0000000000000000e+00  1.2767687594859576e-04 6.4124122053297065e-04 0.0000000000000000e+00  1.2767687594576629e-04 6.4124122054207437e-04 0.0000000000000000e+00  1.2767687593568639e-04 6.4124122054511014e-04 0.0000000000000000e+00  1.2767687594134527e-04 6.4124122053426812e-04 0.0000000000000000e+00  1.2767687594161055e-04 6.4124122053461506e-04 0.0000000000000000e+00  1.2767687593639375e-04 6.4124122052377304e-04 0.0000000000000000e+00  1.2767687594479368e-04 6.4124122053921566e-04 0.0000000000000000e+00  1.2767687593886952e-04 6.4124122054467646e-04 0.0000000000000000e+00  1.2767687593321061e-04 6.4124122053244666e-04 0.0000000000000000e+00  1.2767687593400639e-04 6.4124122053296707e-04 0.0000000000000000e+00  1.2767687593648216e-04 6.4124122052429346e-04 0.0000000000000000e+00  1.2767687594108002e-04 6.4124122053843145e-04 0.0000000000000000e+00  1.2767687592507592e-04 6.4124122052672565e-04 0.0000000000000000e+00  1.2767687593497903e-04 6.4124122053756409e-04 0.0000000000000000e+00  1.2767687594665052e-04 6.4124122052169137e-04 0.0000000000000000e+00  1.2767687594072635e-04 6.4124122053522221e-04 0.0000000000000000e+00  1.2767687593763163e-04 6.4124122053183950e-04 0.0000000000000000e+00  1.2767687593497903e-04 6.4124122052663533e-04 0.0000000000000000e+00  1.2767687593214956e-04 6.4124122055257303e-04 0.0000000000000000e+00  1.2767687592693275e-04 6.4124122052680880e-04 0.0000000000000000e+00  1.2767687593975372e-04 6.4124122054294173e-04 0.0000000000000000e+00  1.2767687594417474e-04 6.4124122055742667e-04 0.0000000000000000e+00  1.2767687594320210e-04 6.3505719906706173e-04 0.0000000000000000e+00  -2.1266302928729970e-04 -6.7014810817521420e-04 0.0000000000000000e+00  -2.1266302928688166e-04 -6.7014810812802972e-04 0.0000000000000000e+00  -2.1266302930318589e-04 -6.7014810813826469e-04 0.0000000000000000e+00  -2.1266302930966579e-04 -6.7014810814450948e-04 0.0000000000000000e+00  -2.1266302932325265e-04 -6.7014810814919324e-04 0.0000000000000000e+00  -2.1266302933652600e-04 -6.7014810817191866e-04 0.0000000000000000e+00  -2.1266302930590325e-04 -6.7014810812508004e-04 0.0000000000000000e+00  -2.1266302931604116e-04 -6.7014810817625546e-04 0.0000000000000000e+00  -2.1266302929325704e-04 -6.7014810815994906e-04 0.0000000000000000e+00  -2.1266302928343265e-04 -6.7014810815613159e-04 0.0000000000000000e+00  -2.1266302928771777e-04 -6.7014810815804087e-04 0.0000000000000000e+00  -2.1266302929336155e-04 -6.7014810820019465e-04 0.0000000000000000e+00  -2.1266302926974126e-04 -6.7014810814502936e-04 0.0000000000000000e+00  -2.1266302928259654e-04 -6.7014810810374294e-04 0.0000000000000000e+00  -2.1266302929858724e-04 -6.7014810816827660e-04 0.0000000000000000e+00  -2.1266302928949447e-04 -6.7014810813982519e-04 0.0000000000000000e+00  -2.1266302930444004e-04 -6.7014810813375366e-04 0.0000000000000000e+00  -2.1266302930642581e-04 -6.7014810816359285e-04 0.0000000000000000e+00  -2.1266302930151364e-04 -6.7014810817399924e-04 0.0000000000000000e+00  -2.1266302930329038e-04 -6.7014810811918198e-04 0.0000000000000000e+00  -2.1266302931238315e-04 -6.7014810816862355e-04 0.0000000000000000e+00  -2.1266302930569422e-04 -6.7014810815491728e-04 0.0000000000000000e+00  -2.1266302931039738e-04 -6.7014810815491728e-04 0.0000000000000000e+00  -2.1266302930182719e-04 -6.7014810814745992e-04 0.0000000000000000e+00  -2.1266302931332377e-04 -6.7014810815890715e-04 0.0000000000000000e+00  -2.1266302931447344e-04 -6.7014810819186689e-04 0.0000000000000000e+00  -2.126630