<?xml version="1.0"?>
<VTKFile type="UnstructuredGrid"  version="0.1"  >
<UnstructuredGrid>
<Piece  NumberOfPoints="2601" NumberOfCells="5000">
<Points>
<DataArray  type="Float64"  NumberOfComponents="3"  format="ascii">0 0 0  0.02 0 0  0.04 0 0  0.06 0 0  0.08 0 0  0.1 0 0  0.12 0 0  0.14 0 0  0.16 0 0  0.18 0 0  0.2 0 0  0.22 0 0  0.24 0 0  0.26 0 0  0.28 0 0  0.3 0 0  0.32 0 0  0.34 0 0  0.36 0 0  0.38 0 0  0.4 0 0  0.42 0 0  0.44 0 0  0.46 0 0  0.48 0 0  0.5 0 0  0.52 0 0  0.54 0 0  0.5600000000000001 0 0  0.58 0 0  0.6 0 0  0.62 0 0  0.64 0 0  0.66 0 0  0.68 0 0  0.7 0 0  0.72 0 0  0.74 0 0  0.76 0 0  0.78 0 0  0.8 0 0  0.82 0 0  0.84 0 0  0.86 0 0  0.88 0 0  0.9 0 0  0.92 0 0  0.9399999999999999 0 0  0.96 0 0  0.98 0 0  1 0 0  0 0.01313563088723984 0  0.02 0.01313563088723984 0  0.04 0.01313563088723984 0  0.06 0.01313563088723984 0  0.08 0.01313563088723984 0  0.1 0.01313563088723984 0  0.12 0.01313563088723984 0  0.14 0.01313563088723984 0  0.16 0.01313563088723984 0  0.18 0.01313563088723984 0  0.2 0.01313563088723984 0  0.22 0.01313563088723984 0  0.24 0.01313563088723984 0  0.26 0.01313563088723984 0  0.28 0.01313563088723984 0  0.3 0.01313563088723984 0  0.32 0.01313563088723984 0  0.34 0.01313563088723984 0  0.36 0.01313563088723984 0  0.38 0.01313563088723984 0  0.4 0.01313563088723984 0  0.42 0.01313563088723984 0  0.44 0.01313563088723984 0  0.46 0.01313563088723984 0  0.48 0.01313563088723984 0  0.5 0.01313563088723984 0  0.52 0.01313563088723984 0  0.54 0.01313563088723984 0  0.5600000000000001 0.01313563088723984 0  0.58 0.01313563088723984 0  0.6 0.01313563088723984 0  0.62 0.01313563088723984 0  0.64 0.01313563088723984 0  0.66 0.01313563088723984 0  0.68 0.01313563088723984 0  0.7 0.01313563088723984 0  0.72 0.01313563088723984 0  0.74 0.01313563088723984 0  0.76 0.01313563088723984 0  0.78 0.01313563088723984 0  0.8 0.01313563088723984 0  0.82 0.01313563088723984 0  0.84 0.01313563088723984 0  0.86 0.01313563088723984 0  0.88 0.01313563088723984 0  0.9 0.01313563088723984 0  0.92 0.01313563088723984 0  0.9399999999999999 0.01313563088723984 0  0.96 0.01313563088723984 0  0.98 0.01313563088723984 0  1 0.01313563088723984 0  0 0.02664639863733726 0  0.02 0.02664639863733726 0  0.04 0.02664639863733726 0  0.06 0.02664639863733726 0  0.08 0.02664639863733726 0  0.1 0.02664639863733726 0  0.12 0.02664639863733726 0  0.14 0.02664639863733726 0  0.16 0.02664639863733726 0  0.18 0.02664639863733726 0  0.2 0.02664639863733726 0  0.22 0.02664639863733726 0  0.24 0.02664639863733726 0  0.26 0.02664639863733726 0  0.28 0.02664639863733726 0  0.3 0.02664639863733726 0  0.32 0.02664639863733726 0  0.34 0.02664639863733726 0  0.36 0.02664639863733726 0  0.38 0.02664639863733726 0  0.4 0.02664639863733726 0  0.42 0.02664639863733726 0  0.44 0.02664639863733726 0  0.46 0.02664639863733726 0  0.48 0.02664639863733726 0  0.5 0.02664639863733726 0  0.52 0.02664639863733726 0  0.54 0.02664639863733726 0  0.5600000000000001 0.02664639863733726 0  0.58 0.02664639863733726 0  0.6 0.02664639863733726 0  0.62 0.02664639863733726 0  0.64 0.02664639863733726 0  0.66 0.02664639863733726 0  0.68 0.02664639863733726 0  0.7 0.02664639863733726 0  0.72 0.02664639863733726 0  0.74 0.02664639863733726 0  0.76 0.02664639863733726 0  0.78 0.02664639863733726 0  0.8 0.02664639863733726 0  0.82 0.02664639863733726 0  0.84 0.02664639863733726 0  0.86 0.02664639863733726 0  0.88 0.02664639863733726 0  0.9 0.02664639863733726 0  0.92 0.02664639863733726 0  0.9399999999999999 0.02664639863733726 0  0.96 0.02664639863733726 0  0.98 0.02664639863733726 0  1 0.02664639863733726 0  0 0.04101652939099896 0  0.02 0.04101652939099896 0  0.04 0.04101652939099896 0  0.06 0.04101652939099896 0  0.08 0.04101652939099896 0  0.1 0.04101652939099896 0  0.12 0.04101652939099896 0  0.14 0.04101652939099896 0  0.16 0.04101652939099896 0  0.18 0.04101652939099896 0  0.2 0.04101652939099896 0  0.22 0.04101652939099896 0  0.24 0.04101652939099896 0  0.26 0.04101652939099896 0  0.28 0.04101652939099896 0  0.3 0.04101652939099896 0  0.32 0.04101652939099896 0  0.34 0.04101652939099896 0  0.36 0.04101652939099896 0  0.38 0.04101652939099896 0  0.4 0.04101652939099896 0  0.42 0.04101652939099896 0  0.44 0.04101652939099896 0  0.46 0.04101652939099896 0  0.48 0.04101652939099896 0  0.5 0.04101652939099896 0  0.52 0.04101652939099896 0  0.54 0.04101652939099896 0  0.5600000000000001 0.04101652939099896 0  0.58 0.04101652939099896 0  0.6 0.04101652939099896 0  0.62 0.04101652939099896 0  0.64 0.04101652939099896 0  0.66 0.04101652939099896 0  0.68 0.04101652939099896 0  0.7 0.04101652939099896 0  0.72 0.04101652939099896 0  0.74 0.04101652939099896 0  0.76 0.04101652939099896 0  0.78 0.04101652939099896 0  0.8 0.04101652939099896 0  0.82 0.04101652939099896 0  0.84 0.04101652939099896 0  0.86 0.04101652939099896 0  0.88 0.04101652939099896 0  0.9 0.04101652939099896 0  0.92 0.04101652939099896 0  0.9399999999999999 0.04101652939099896 0  0.96 0.04101652939099896 0  0.98 0.04101652939099896 0  1 0.04101652939099896 0  0 0.05705811164099547 0  0.02 0.05705811164099547 0  0.04 0.05705811164099547 0  0.06 0.05705811164099547 0  0.08 0.05705811164099547 0  0.1 0.05705811164099547 0  0.12 0.05705811164099547 0  0.14 0.05705811164099547 0  0.16 0.05705811164099547 0  0.18 0.05705811164099547 0  0.2 0.05705811164099547 0  0.22 0.05705811164099547 0  0.24 0.05705811164099547 0  0.26 0.05705811164099547 0  0.28 0.05705811164099547 0  0.3 0.05705811164099547 0  0.32 0.05705811164099547 0  0.34 0.05705811164099547 0  0.36 0.05705811164099547 0  0.38 0.05705811164099547 0  0.4 0.05705811164099547 0  0.42 0.05705811164099547 0  0.44 0.05705811164099547 0  0.46 0.05705811164099547 0  0.48 0.05705811164099547 0  0.5 0.05705811164099547 0  0.52 0.05705811164099547 0  0.54 0.05705811164099547 0  0.5600000000000001 0.05705811164099547 0  0.58 0.05705811164099547 0  0.6 0.05705811164099547 0  0.62 0.05705811164099547 0  0.64 0.05705811164099547 0  0.66 0.05705811164099547 0  0.68 0.05705811164099547 0  0.7 0.05705811164099547 0  0.72 0.05705811164099547 0  0.74 0.05705811164099547 0  0.76 0.05705811164099547 0  0.78 0.05705811164099547 0  0.8 0.05705811164099547 0  0.82 0.05705811164099547 0  0.84 0.05705811164099547 0  0.86 0.05705811164099547 0  0.88 0.05705811164099547 0  0.9 0.05705811164099547 0  0.92 0.05705811164099547 0  0.9399999999999999 0.05705811164099547 0  0.96 0.05705811164099547 0  0.98 0.05705811164099547 0  1 0.05705811164099547 0  0 0.07667714377545 0  0.02 0.07667714377545 0  0.04 0.07667714377545 0  0.06 0.07667714377545 0  0.08 0.07667714377545 0  0.1 0.07667714377545 0  0.12 0.07667714377545 0  0.14 0.07667714377545 0  0.16 0.07667714377545 0  0.18 0.07667714377545 0  0.2 0.07667714377545 0  0.22 0.07667714377545 0  0.24 0.07667714377545 0  0.26 0.07667714377545 0  0.28 0.07667714377545 0  0.3 0.07667714377545 0  0.32 0.07667714377545 0  0.34 0.07667714377545 0  0.36 0.07667714377545 0  0.38 0.07667714377545 0  0.4 0.07667714377545 0  0.42 0.07667714377545 0  0.44 0.07667714377545 0  0.46 0.07667714377545 0  0.48 0.07667714377545 0  0.5 0.07667714377545 0  0.52 0.07667714377545 0  0.54 0.07667714377545 0  0.5600000000000001 0.07667714377545 0  0.58 0.07667714377545 0  0.6 0.07667714377545 0  0.62 0.07667714377545 0  0.64 0.07667714377545 0  0.66 0.07667714377545 0  0.68 0.07667714377545 0  0.7 0.07667714377545 0  0.72 0.07667714377545 0  0.74 0.07667714377545 0  0.76 0.07667714377545 0  0.78 0.07667714377545 0  0.8 0.07667714377545 0  0.82 0.07667714377545 0  0.84 0.07667714377545 0  0.86 0.07667714377545 0  0.88 0.07667714377545 0  0.9 0.07667714377545 0  0.92 0.07667714377545 0  0.9399999999999999 0.07667714377545 0  0.96 0.07667714377545 0  0.98 0.07667714377545 0  1 0.07667714377545 0  0 0.1098730133816912 0  0.02 0.1098730133816912 0  0.04 0.1098730133816912 0  0.06 0.1098730133816912 0  0.08 0.1098730133816912 0  0.1 0.1098730133816912 0  0.12 0.1098730133816912 0  0.14 0.1098730133816912 0  0.16 0.1098730133816912 0  0.18 0.1098730133816912 0  0.2 0.1098730133816912 0  0.22 0.1098730133816912 0  0.24 0.1098730133816912 0  0.26 0.1098730133816912 0  0.28 0.1098730133816912 0  0.3 0.1098730133816912 0  0.32 0.1098730133816912 0  0.34 0.1098730133816912 0  0.36 0.1098730133816912 0  0.38 0.1098730133816912 0  0.4 0.1098730133816912 0  0.42 0.1098730133816912 0  0.44 0.1098730133816912 0  0.46 0.1098730133816912 0  0.48 0.1098730133816912 0  0.5 0.1098730133816912 0  0.52 0.1098730133816912 0  0.54 0.1098730133816912 0  0.5600000000000001 0.1098730133816912 0  0.58 0.1098730133816912 0  0.6 0.1098730133816912 0  0.62 0.1098730133816912 0  0.64 0.1098730133816912 0  0.66 0.1098730133816912 0  0.68 0.1098730133816912 0  0.7 0.1098730133816912 0  0.72 0.1098730133816912 0  0.74 0.1098730133816912 0  0.76 0.1098730133816912 0  0.78 0.1098730133816912 0  0.8 0.1098730133816912 0  0.82 0.1098730133816912 0  0.84 0.1098730133816912 0  0.86 0.1098730133816912 0  0.88 0.1098730133816912 0  0.9 0.1098730133816912 0  0.92 0.1098730133816912 0  0.9399999999999999 0.1098730133816912 0  0.96 0.1098730133816912 0  0.98 0.1098730133816912 0  1 0.1098730133816912 0  0 0.1603283563168221 0  0.02 0.1603283563168221 0  0.04 0.1603283563168221 0  0.06 0.1603283563168221 0  0.08 0.1603283563168221 0  0.1 0.1603283563168221 0  0.12 0.1603283563168221 0  0.14 0.1603283563168221 0  0.16 0.1603283563168221 0  0.18 0.1603283563168221 0  0.2 0.1603283563168221 0  0.22 0.1603283563168221 0  0.24 0.1603283563168221 0  0.26 0.1603283563168221 0  0.28 0.1603283563168221 0  0.3 0.1603283563168221 0  0.32 0.1603283563168221 0  0.34 0.1603283563168221 0  0.36 0.1603283563168221 0  0.38 0.1603283563168221 0  0.4 0.1603283563168221 0  0.42 0.1603283563168221 0  0.44 0.1603283563168221 0  0.46 0.1603283563168221 0  0.48 0.1603283563168221 0  0.5 0.1603283563168221 0  0.52 0.1603283563168221 0  0.54 0.1603283563168221 0  0.5600000000000001 0.1603283563168221 0  0.58 0.1603283563168221 0 
[...]
<PointData  Vectors="u_paraw"> 
<DataArray  type="Float64"  Name="u_paraw"  NumberOfComponents="3" format="ascii">3.8377386392072969e-05 -1.2622959229436227e-04 0.0000000000000000e+00  3.8377386389217119e-05 -1.2622959229993506e-04 0.0000000000000000e+00  3.8377386399204329e-05 -1.2622959228101574e-04 0.0000000000000000e+00  3.8377386389332668e-05 -1.2622959230522594e-04 0.0000000000000000e+00  3.8377386396100868e-05 -1.2622959230455374e-04 0.0000000000000000e+00  3.8377386396232924e-05 -1.2622959229664999e-04 0.0000000000000000e+00  3.8377386386410784e-05 -1.2622959230780624e-04 0.0000000000000000e+00  3.8377386394681193e-05 -1.2622959229114224e-04 0.0000000000000000e+00  3.8377386392304066e-05 -1.2622959230223363e-04 0.0000000000000000e+00  3.8377386396662132e-05 -1.2622959229309361e-04 0.0000000000000000e+00  3.8377386389778377e-05 -1.2622959230085669e-04 0.0000000000000000e+00  3.8377386403760485e-05 -1.2622959229642230e-04 0.0000000000000000e+00  3.8377386389200599e-05 -1.2622959230263459e-04 0.0000000000000000e+00  3.8377386392931365e-05 -1.2622959229526202e-04 0.0000000000000000e+00  3.8377386397669105e-05 -1.2622959229215074e-04 0.0000000000000000e+00  3.8377386384974602e-05 -1.2622959231593775e-04 0.0000000000000000e+00  3.8377386401829074e-05 -1.2622959229395013e-04 0.0000000000000000e+00  3.8377386397834182e-05 -1.2622959230062920e-04 0.0000000000000000e+00  3.8377386397933230e-05 -1.2622959228958080e-04 0.0000000000000000e+00  3.8377386400227816e-05 -1.2622959230117092e-04 0.0000000000000000e+00  3.8377386395374520e-05 -1.2622959229489377e-04 0.0000000000000000e+00  3.8377386397239904e-05 -1.2622959229997830e-04 0.0000000000000000e+00  3.8377386390174565e-05 -1.2622959229891578e-04 0.0000000000000000e+00  3.8377386403001123e-05 -1.2622959230081351e-04 0.0000000000000000e+00  3.8377386391016461e-05 -1.2622959230249365e-04 0.0000000000000000e+00  3.8377386385024123e-05 -1.2622959230465121e-04 0.0000000000000000e+00  3.8377386391610739e-05 -1.2622959230007588e-04 0.0000000000000000e+00  3.8377386392650733e-05 -1.2622959228859417e-04 0.0000000000000000e+00  3.8377386391808837e-05 -1.2622959230357855e-04 0.0000000000000000e+00  3.8377386390917412e-05 -1.2622959230861939e-04 0.0000000000000000e+00  3.8377386388127591e-05 -1.2622959230513910e-04 0.0000000000000000e+00  3.8377386401185268e-05 -1.2622959229489339e-04 0.0000000000000000e+00  3.8377386388276167e-05 -1.2622959230449942e-04 0.0000000000000000e+00  3.8377386388688862e-05 -1.2622959230345859e-04 0.0000000000000000e+00  3.8377386402852554e-05 -1.2622959229665050e-04 0.0000000000000000e+00  3.8377386391577725e-05 -1.2622959229464402e-04 0.0000000000000000e+00  3.8377386390702808e-05 -1.2622959230563783e-04 0.0000000000000000e+00  3.8377386395655152e-05 -1.2622959230762192e-04 0.0000000000000000e+00  3.8377386387830452e-05 -1.2622959229469823e-04 0.0000000000000000e+00  3.8377386401845581e-05 -1.2622959229500181e-04 0.0000000000000000e+00  3.8377386392832317e-05 -1.2622959229805996e-04 0.0000000000000000e+00  3.8377386393987866e-05 -1.2622959229254067e-04 0.0000000000000000e+00  3.8377386391297093e-05 -1.2622959230222260e-04 0.0000000000000000e+00  3.8377386399980197e-05 -1.2622959229378750e-04 0.0000000000000000e+00  3.8377386398874176e-05 -1.2622959229361403e-04 0.0000000000000000e+00  3.8377386392485657e-05 -1.2622959230020598e-04 0.0000000000000000e+00  3.8377386395688166e-05 -1.2622959230339424e-04 0.0000000000000000e+00  3.8377386394037387e-05 -1.2622959228650166e-04 0.0000000000000000e+00  3.8377386389415203e-05 -1.2622959230350195e-04 0.0000000000000000e+00  3.8377386400706538e-05 -1.2622959229671485e-04 0.0000000000000000e+00  3.8377386392072962e-05 -2.9684066171443530e-15 0.0000000000000000e+00  -1.0578421465927788e-04 -3.2599544988395896e-04 0.0000000000000000e+00  -1.0578421465593959e-04 -3.2599544986739235e-04 0.0000000000000000e+00  -1.0578421465658157e-04 -3.2599544986140766e-04 0.0000000000000000e+00  -1.0578421466993473e-04 -3.2599544987944867e-04 0.0000000000000000e+00  -1.0578421466534460e-04 -3.2599544987619607e-04 0.0000000000000000e+00  -1.0578421465886061e-04 -3.2599544988372070e-04 0.0000000000000000e+00  -1.0578421465728777e-04 -3.2599544987793057e-04 0.0000000000000000e+00  -1.0578421466024087e-04 -3.2599544987593613e-04 0.0000000000000000e+00  -1.0578421466097914e-04 -3.2599544987576266e-04 0.0000000000000000e+00  -1.0578421466422113e-04 -3.2599544988614883e-04 0.0000000000000000e+00  -1.0578421465754456e-04 -3.2599544987474351e-04 0.0000000000000000e+00  -1.0578421465947049e-04 -3.2599544987860327e-04 0.0000000000000000e+00  -1.0578421466261619e-04 -3.2599544988849070e-04 0.0000000000000000e+00  -1.0578421465597171e-04 -3.2599544987498154e-04 0.0000000000000000e+00  -1.0578421466569768e-04 -3.2599544988764595e-04 0.0000000000000000e+00  -1.0578421467070511e-04 -3.2599544987374555e-04 0.0000000000000000e+00  -1.0578421464980873e-04 -3.2599544987589227e-04 0.0000000000000000e+00  -1.0578421465555443e-04 -3.2599544988695206e-04 0.0000000000000000e+00  -1.0578421466284088e-04 -3.2599544989059406e-04 0.0000000000000000e+00  -1.0578421466024087e-04 -3.2599544988575851e-04 0.0000000000000000e+00  -1.0578421465664579e-04 -3.2599544987496078e-04 0.0000000000000000e+00  -1.0578421466133222e-04 -3.2599544988155181e-04 0.0000000000000000e+00  -1.0578421465863592e-04 -3.2599544987335524e-04 0.0000000000000000e+00  -1.0578421466521620e-04 -3.2599544988072874e-04 0.0000000000000000e+00  -1.0578421465427048e-04 -3.2599544986962559e-04 0.0000000000000000e+00  -1.0578421466386804e-04 -3.2599544987767037e-04 0.0000000000000000e+00  -1.0578421466434953e-04 -3.2599544988699450e-04 0.0000000000000000e+00  -1.0578421465600380e-04 -3.2599544987428766e-04 0.0000000000000000e+00  -1.0578421466312976e-04 -3.2599544987838773e-04 0.0000000000000000e+00  -1.0578421466046555e-04 -3.2599544987550196e-04 0.0000000000000000e+00  -1.0578421465841123e-04 -3.2599544987897141e-04 0.0000000000000000e+00  -1.0578421465837913e-04 -3.2599544987860278e-04 0.0000000000000000e+00  -1.0578421466762362e-04 -3.2599544988606209e-04 0.0000000000000000e+00  -1.0578421465423837e-04 -3.2599544988131329e-04 0.0000000000000000e+00  -1.0578421465767296e-04 -3.2599544987752037e-04 0.0000000000000000e+00  -1.0578421465857172e-04 -3.2599544987472134e-04 0.0000000000000000e+00  -1.0578421465882852e-04 -3.2599544987231441e-04 0.0000000000000000e+00  -1.0578421466309767e-04 -3.2599544987940509e-04 0.0000000000000000e+00  -1.0578421465362849e-04 -3.2599544986509362e-04 0.0000000000000000e+00  -1.0578421466014457e-04 -3.2599544988569346e-04 0.0000000000000000e+00  -1.0578421465924580e-04 -3.2599544987858288e-04 0.0000000000000000e+00  -1.0578421465224824e-04 -3.2599544987181567e-04 0.0000000000000000e+00  -1.0578421466791250e-04 -3.2599544987389734e-04 0.0000000000000000e+00  -1.0578421465484825e-04 -3.2599544987335524e-04 0.0000000000000000e+00  -1.0578421466059395e-04 -3.2599544988816544e-04 0.0000000000000000e+00  -1.0578421466659644e-04 -3.2599544988248422e-04 0.0000000000000000e+00  -1.0578421465340381e-04 -3.2599544987602417e-04 0.0000000000000000e+00  -1.0578421464817168e-04 -3.2599544986348900e-04 0.0000000000000000e+00  -1.0578421466797670e-04 -3.2599544986663319e-04 0.0000000000000000e+00  -1.0578421465593962e-04 -3.2599544987977372e-04 0.0000000000000000e+00  -1.0578421465927790e-04 -4.0247079740967929e-04 0.0000000000000000e+00  1.4555876194998976e-04 1.0830350059684232e-03 0.0000000000000000e+00  1.4555876194377284e-04 1.0830350059585787e-03 0.0000000000000000e+00  1.4555876195276627e-04 1.0830350059721531e-03 0.0000000000000000e+00  1.4555876193176145e-04 1.0830350059721960e-03 0.0000000000000000e+00  1.4555876193387402e-04 1.0830350059708516e-03 0.0000000000000000e+00  1.4555876194365211e-04 1.0830350059723270e-03 0.0000000000000000e+00  1.4555876194709256e-04 1.0830350059719785e-03 0.0000000000000000e+00  1.4555876194184136e-04 1.0830350059633498e-03 0.0000000000000000e+00  1.4555876193821982e-04 1.0830350059663856e-03 0.0000000000000000e+00  1.4555876194063418e-04 1.0830350059604426e-03 0.0000000000000000e+00  1.4555876194111706e-04 1.0830350059657784e-03 0.0000000000000000e+00  1.4555876193737482e-04 1.0830350059546762e-03 0.0000000000000000e+00  1.4555876194335032e-04 1.0830350059606595e-03 0.0000000000000000e+00  1.4555876195258521e-04 1.0830350059812593e-03 0.0000000000000000e+00  1.4555876194383320e-04 1.0830350059753207e-03 0.0000000000000000e+00  1.4555876194823937e-04 1.0830350059658203e-03 0.0000000000000000e+00  1.4555876194648898e-04 1.0830350059730194e-03 0.0000000000000000e+00  1.4555876193767661e-04 1.0830350059572362e-03 0.0000000000000000e+00  1.4555876194485929e-04 1.0830350059587079e-03 0.0000000000000000e+00  1.4555876195264554e-04 1.0830350059722387e-03 0.0000000000000000e+00  1.4555876194377284e-04 1.0830350059637848e-03 0.0000000000000000e+00  1.4555876194926546e-04 1.0830350059696800e-03 0.0000000000000000e+00  1.4555876194244493e-04 1.0830350059682489e-03 0.0000000000000000e+00  1.4555876194522144e-04 1.0830350059659532e-03 0.0000000000000000e+00  1.4555876193604692e-04 1.0830350059696367e-03 0.0000000000000000e+00  1.4555876193224433e-04 1.0830350059609630e-03 0.0000000000000000e+00  1.4555876194769613e-04 1.0830350059747541e-03 0.0000000000000000e+00  1.4555876194202242e-04 1.0830350059665575e-03 0.0000000000000000e+00  1.4555876193532262e-04 1.0830350059608822e-03 0.0000000000000000e+00  1.4555876193882343e-04 1.0830350059588380e-03 0.0000000000000000e+00  1.4555876194540253e-04 1.0830350059667744e-03 0.0000000000000000e+00  1.4555876193828019e-04 1.0830350059646060e-03 0.0000000000000000e+00  1.4555876194473856e-04 1.0830350059685525e-03 0.0000000000000000e+00  1.4555876194576468e-04 1.0830350059735832e-03 0.0000000000000000e+00  1.4555876193574513e-04 1.0830350059588005e-03 0.0000000000000000e+00  1.4555876194558359e-04 1.0830350059608329e-03 0.0000000000000000e+00  1.4555876194624753e-04 1.0830350059648662e-03 0.0000000000000000e+00  1.4555876193997024e-04 1.0830350059636519e-03 0.0000000000000000e+00  1.4555876195017085e-04 1.0830350059639121e-03 0.0000000000000000e+00  1.4555876193411544e-04 1.0830350059669912e-03 0.0000000000000000e+00  1.4555876194461786e-04 1.0830350059666068e-03 0.0000000000000000e+00  1.4555876194063418e-04 1.0830350059643458e-03 0.0000000000000000e+00  1.4555876194872225e-04 1.0830350059839048e-03 0.0000000000000000e+00  1.4555876194141884e-04 1.0830350059732796e-03 0.0000000000000000e+00  1.4555876193568477e-04 1.0830350059536772e-03 0.0000000000000000e+00  1.4555876193948737e-04 1.0830350059781368e-03 0.0000000000000000e+00  1.4555876194425571e-04 1.0830350059672573e-03 0.0000000000000000e+00  1.4555876194534217e-04 1.0830350059717183e-03 0.0000000000000000e+00  1.4555876193858198e-04 1.0830350059630881e-03 0.0000000000000000e+00  1.4555876194214315e-04 1.0830350059787440e-03 0.0000000000000000e+00  1.4555876194998976e-04 1.8316343912541441e-04 0.0000000000000000e+00  -1.9842922759798307e-04 2.5308115345302681e-04 0.0000000000000000e+00  -1.9842922759711796e-04 2.5308115345588911e-04 0.0000000000000000e+00  -1.9842922759452262e-04 2.5308115344279195e-04 0.0000000000000000e+00  -1.9842922759387378e-04 2.5308115345172577e-04 0.0000000000000000e+00  -1.9842922758889938e-04 2.5308115347297613e-04 0.0000000000000000e+00  -1.9842922758619589e-04 2.5308115345684331e-04 0.0000000000000000e+00  -1.9842922760274120e-04 2.5308115346187369e-04 0.0000000000000000e+00  -1.9842922758868308e-04 2.5308115346430262e-04 0.0000000000000000e+00  -1.9842922759646912e-04 2.5308115345606269e-04 0.0000000000000000e+00  -1.9842922760414700e-04 2.5308115344851632e-04 0.0000000000000000e+00  -1.9842922758922377e-04 2.5308115346170054e-04 0.0000000000000000e+00  -1.9842922759257610e-04 2.5308115345337387e-04 0.0000000000000000e+00  -1.9842922759300867e-04 2.5308115346395535e-04 0.0000000000000000e+00  -1.9842922758954822e-04 2.5308115344773569e-04 0.0000000000000000e+00  -1.9842922758835866e-04 2.5308115346829281e-04 0.0000000000000000e+00  -1.9842922759192729e-04 2.5308115345710320e-04 0.0000000000000000e+00  -1.9842922759138659e-04 2.5308115345077146e-04 0.0000000000000000e+00  -1.9842922759419817e-04 2.5308115347080816e-04 0.0000000000000000e+00  -1.9842922759225171e-04 2.5308115346048591e-04 0.0000000000000000e+00  -1.9842922758662846e-04 2.5308115344643465e-04 0.0000000000000000e+00  -1.9842922758814239e-04 2.5308115346664483e-04 0.0000000000000000e+00  -1.9842922759290055e-04 2.5308115345432764e-04 0.0000000000000000e+00  -1.9842922759160287e-04 2.5308115345467458e-04 0.0000000000000000e+00  -1.9842922759322494e-04 2.5308115344617509e-04 0.0000000000000000e+00  -1.9842922759214356e-04 2.5308115346265431e-04 0.0000000000000000e+00  -1.9842922760220051e-04 2.5308115345580215e-04 0.0000000000000000e+00  -1.9842922759603657e-04 2.5308115346065938e-04 0.0000000000000000e+00  -1.9842922759787495e-04 2.5308115345606236e-04 0.0000000000000000e+00  -1.9842922759473889e-04 2.5308115344756363e-04 0.0000000000000000e+00  -1.9842922759549588e-04 2.5308115345692972e-04 0.0000000000000000e+00  -1.9842922759333309e-04 2.5308115344947041e-04 0.0000000000000000e+00  -1.9842922759322494e-04 2.5308115346083285e-04 0.0000000000000000e+00  -1.9842922759657727e-04 2.5308115344955715e-04 0.0000000000000000e+00  -1.9842922759300867e-04 2.5308115345406743e-04 0.0000000000000000e+00  -1.9842922759819934e-04 2.5308115344652279e-04 0.0000000000000000e+00  -1.9842922759419820e-04 2.5308115345259292e-04 0.0000000000000000e+00  -1.9842922759441447e-04 2.5308115344496013e-04 0.0000000000000000e+00  -1.9842922758814242e-04 2.5308115345580215e-04 0.0000000000000000e+00  -1.9842922759517146e-04 2.5308115344903673e-04 0.0000000000000000e+00  -1.9842922758933195e-04 2.5308115345805729e-04 0.0000000000000000e+00  -1.9842922758543893e-04 2.5308115345328821e-04 0.0000000000000000e+00  -1.9842922759560401e-04 2.5308115346464924e-04 0.0000000000000000e+00  -1.9842922759192729e-04 2.5308115344062332e-04 0.0000000000000000e+00  -1.9842922759463077e-04 2.5308115344756222e-04 0.0000000000000000e+00  -1.9842922759376566e-04 2.5308115345311333e-04 0.0000000000000000e+00  -1.9842922758522266e-04 2.5308115346352167e-04 0.0000000000000000e+00  -1.9842922758597962e-04 2.5308115346022711e-04 0.0000000000000000e+00  -1.9842922759560401e-04 2.5308115344730201e-04 0.0000000000000000e+00  -1.9842922759192729e-04 2.5308115346386862e-04 0.0000000000000000e+00  -1.9842922759062960e-04 2.5308115346924626e-04 0.0000000000000000e+00  -1.9842922759798307e-04 1.3631326021954792e-03 0.0000000000000000e+00  3.9786183492032526e-04 1.7432727425299198e-03 0.0000000000000000e+00  3.9786183492103260e-04 1.7432727425234146e-03 0.0000000000000000e+00  3.9786183491351691e-04 1.7432727425173435e-03 0.0000000000000000e+00  3.9786183492748729e-04 1.7432727425261032e-03 0.0000000000000000e+00  3.9786183491837999e-04 1.7432727425276645e-03 0.0000000000000000e+00  3.9786183491519688e-04 1.7432727425431048e-03 0.0000000000000000e+00  3.9786183491280952e-04 1.7432727425237605e-03 0.0000000000000000e+00  3.9786183491369369e-04 1.7432727425168238e-03 0.0000000000000000e+00  3.9786183490679691e-04 1.7432727425162166e-03 0.0000000000000000e+00  3.9786183490794639e-04 1.7432727425306127e-03 0.0000000000000000e+00  3.9786183491342844e-04 1.7432727425382476e-03 0.0000000000000000e+00  3.9786183490838847e-04 1.7432727425179513e-03 0.0000000000000000e+00  3.9786183490370222e-04 1.7432727425024234e-03 0.0000000000000000e+00  3.9786183490723900e-04 1.7432727425052857e-03 0.0000000000000000e+00  3.9786183492147474e-04 1.7432727425268876e-03 0.0000000000000000e+00  3.9786183491696527e-04 1.7432727425191635e-03 0.0000000000000000e+00  3.9786183491413582e-04 1.7432727425084082e-03 0.0000000000000000e+00  3.9786183491802632e-04 1.7432727425213364e-03 0.0000000000000000e+00  3.9786183491510846e-04 1.7432727425266228e-03 0.0000000000000000e+00  3.9786183491678843e-04 1.7432727425228931e-03 0.0000000000000000e+00  3.9786183492403893e-04 1.7432727425243722e-03 0.0000000000000000e+00  3.9786183490936111e-04 1.7432727425281840e-03 0.0000000000000000e+00  3.9786183491608105e-04 1.7432727425261891e-03 0.0000000000000000e+00  3.9786183490573586e-04 1.7432727425071984e-03 0.0000000000000000e+00  3.9786183491811474e-04 1.7432727425215921e-03 0.0000000000000000e+00  3.9786183490812322e-04 1.7432727425202910e-03 0.0000000000000000e+00  3.9786183491661160e-04 1.7432727425132654e-03 0.0000000000000000e+00  3.9786183493208517e-04 1.7432727425209849e-03 0.0000000000000000e+00  3.9786183491174847e-04 1.7432727425163975e-03 0.0000000000000000e+00  3.9786183491758424e-04 1.7432727425185563e-03 0.0000000000000000e+00  3.9786183491661160e-04 1.7432727425196839e-03 0.0000000000000000e+00  3.9786183491634635e-04 1.7432727425195972e-03 0.0000000000000000e+00  3.9786183491731893e-04 1.7432727425228064e-03 0.0000000000000000e+00  3.9786183491413582e-04 1.7432727425110103e-03 0.0000000000000000e+00  3.9786183492050210e-04 1.7432727425233364e-03 0.0000000000000000e+00  3.9786183491864524e-04 1.7432727425167349e-03 0.0000000000000000e+00  3.9786183491572738e-04 1.7432727425177757e-03 0.0000000000000000e+00  3.9786183491793791e-04 1.7432727425109235e-03 0.0000000000000000e+00  3.9786183492996306e-04 1.7432727425323474e-03 0.0000000000000000e+00  3.9786183491758424e-04 1.7432727425180359e-03 0.0000000000000000e+00  3.9786183490741589e-04 1.7432727425021727e-03 0.0000000000000000e+00  3.9786183492669154e-04 1.7432727425158675e-03 0.0000000000000000e+00  3.9786183491174847e-04 1.7432727425211584e-03 0.0000000000000000e+00  3.9786183491590421e-04 1.7432727425079745e-03 0.0000000000000000e+00  3.9786183492324312e-04 1.7432727425147399e-03 0.0000000000000000e+00  3.9786183492509993e-04 1.7432727425212451e-03 0.0000000000000000e+00  3.9786183492430418e-04 1.7432727425286273e-03 0.0000000000000000e+00  3.9786183491457791e-04 1.7432727425229799e-03 0.0000000000000000e+00  3.9786183492660312e-04 1.7432727425275769e-03 0.0000000000000000e+00  3.9786183491740735e-04 1.7432727425151736e-03 0.0000000000000000e+00  3.9786183492032526e-04 1.0013570689131866e-04 0.0000000000000000e+00  -5.1486890589484496e-04 -1.6247553185732080e-03 0.0000000000000000e+00  -5.1486890591052208e-04 -1.6247553185728611e-03 0.0000000000000000e+00  -5.1486890591459814e-04 -1.6247553185654020e-03 0.0000000000000000e+00  -5.1486890591543428e-04 -1.6247553185695649e-03 0.0000000000000000e+00  -5.1486890592504963e-04 -1.6247553185744221e-03 0.0000000000000000e+00  -5.1486890592870762e-04 -1.6247553185851785e-03 0.0000000000000000e+00  -5.1486890592065992e-04 -1.6247553185839616e-03 0.0000000000000000e+00  -5.1486890590895444e-04 -1.6247553185926378e-03 0.0000000000000000e+00  -5.1486890590059329e-04 -1.6247553185633210e-03 0.0000000000000000e+00  -5.1486890590811819e-04 -1.6247553185974924e-03 0.0000000000000000e+00  -5.1486890590153383e-04 -1.6247553185851785e-03 0.0000000000000000e+00  -5.1486890591616590e-04 -1.6247553186113728e-03 0.0000000000000000e+00  -5.1486890590268352e-04 -1.6247553185824003e-03 0.0000000000000000e+00  -5.1486890590205642e-04 -1.6247553185754614e-03 0.0000000000000000e+00  -5.1486890590884981e-04 -1.6247553185740784e-03 0.0000000000000000e+00  -5.1486890592201864e-04 -1.6247553186098090e-03 0.0000000000000000e+00  -5.1486890590383310e-04 -1.6247553185596755e-03 0.0000000000000000e+00  -5.1486890591323942e-04 -1.6247553185794561e-03 0.0000000000000000e+00  -5.1486890590979047e-04 -1.6247553185683491e-03 0.0000000000000000e+00  -5.1486890591397104e-04 -1.6247553185860433e-03 0.0000000000000000e+00  -5.1486890591658386e-04 -1.6247553185942012e-03 0.0000000000000000e+00  -5.1486890591637482e-04 -1.6247553185872576e-03 0.0000000000000000e+00  -5.1486890591480718e-04 -1.6247553185778901e-03 0.0000000000000000e+00  -5.1486890591951034e-04 -1.6247553185888236e-03 0.0000000000000000e+00  -5.1486890592630373e-04 -1.6247553185947169e-03 0.0000000000000000e+00  -5.1486890591522525e-04 -1.62475