<?xml version="1.0"?>
<VTKFile type="UnstructuredGrid"  version="0.1"  >
<UnstructuredGrid>
<Piece  NumberOfPoints="2601" NumberOfCells="5000">
<Points>
<DataArray  type="Float64"  NumberOfComponents="3"  format="ascii">0 0 0  0.02 0 0  0.04 0 0  0.06 0 0  0.08 0 0  0.1 0 0  0.12 0 0  0.14 0 0  0.16 0 0  0.18 0 0  0.2 0 0  0.22 0 0  0.24 0 0  0.26 0 0  0.28 0 0  0.3 0 0  0.32 0 0  0.34 0 0  0.36 0 0  0.38 0 0  0.4 0 0  0.42 0 0  0.44 0 0  0.46 0 0  0.48 0 0  0.5 0 0  0.52 0 0  0.54 0 0  0.5600000000000001 0 0  0.58 0 0  0.6 0 0  0.62 0 0  0.64 0 0  0.66 0 0  0.68 0 0  0.7 0 0  0.72 0 0  0.74 0 0  0.76 0 0  0.78 0 0  0.8 0 0  0.82 0 0  0.84 0 0  0.86 0 0  0.88 0 0  0.9 0 0  0.92 0 0  0.9399999999999999 0 0  0.96 0 0  0.98 0 0  1 0 0  0 0.01313563088723984 0  0.02 0.01313563088723984 0  0.04 0.01313563088723984 0  0.06 0.01313563088723984 0  0.08 0.01313563088723984 0  0.1 0.01313563088723984 0  0.12 0.01313563088723984 0  0.14 0.01313563088723984 0  0.16 0.01313563088723984 0  0.18 0.01313563088723984 0  0.2 0.01313563088723984 0  0.22 0.01313563088723984 0  0.24 0.01313563088723984 0  0.26 0.01313563088723984 0  0.28 0.01313563088723984 0  0.3 0.01313563088723984 0  0.32 0.01313563088723984 0  0.34 0.01313563088723984 0  0.36 0.01313563088723984 0  0.38 0.01313563088723984 0  0.4 0.01313563088723984 0  0.42 0.01313563088723984 0  0.44 0.01313563088723984 0  0.46 0.01313563088723984 0  0.48 0.01313563088723984 0  0.5 0.01313563088723984 0  0.52 0.01313563088723984 0  0.54 0.01313563088723984 0  0.5600000000000001 0.01313563088723984 0  0.58 0.01313563088723984 0  0.6 0.01313563088723984 0  0.62 0.01313563088723984 0  0.64 0.01313563088723984 0  0.66 0.01313563088723984 0  0.68 0.01313563088723984 0  0.7 0.01313563088723984 0  0.72 0.01313563088723984 0  0.74 0.01313563088723984 0  0.76 0.01313563088723984 0  0.78 0.01313563088723984 0  0.8 0.01313563088723984 0  0.82 0.01313563088723984 0  0.84 0.01313563088723984 0  0.86 0.01313563088723984 0  0.88 0.01313563088723984 0  0.9 0.01313563088723984 0  0.92 0.01313563088723984 0  0.9399999999999999 0.01313563088723984 0  0.96 0.01313563088723984 0  0.98 0.01313563088723984 0  1 0.01313563088723984 0  0 0.02664639863733726 0  0.02 0.02664639863733726 0  0.04 0.02664639863733726 0  0.06 0.02664639863733726 0  0.08 0.02664639863733726 0  0.1 0.02664639863733726 0  0.12 0.02664639863733726 0  0.14 0.02664639863733726 0  0.16 0.02664639863733726 0  0.18 0.02664639863733726 0  0.2 0.02664639863733726 0  0.22 0.02664639863733726 0  0.24 0.02664639863733726 0  0.26 0.02664639863733726 0  0.28 0.02664639863733726 0  0.3 0.02664639863733726 0  0.32 0.02664639863733726 0  0.34 0.02664639863733726 0  0.36 0.02664639863733726 0  0.38 0.02664639863733726 0  0.4 0.02664639863733726 0  0.42 0.02664639863733726 0  0.44 0.02664639863733726 0  0.46 0.02664639863733726 0  0.48 0.02664639863733726 0  0.5 0.02664639863733726 0  0.52 0.02664639863733726 0  0.54 0.02664639863733726 0  0.5600000000000001 0.02664639863733726 0  0.58 0.02664639863733726 0  0.6 0.02664639863733726 0  0.62 0.02664639863733726 0  0.64 0.02664639863733726 0  0.66 0.02664639863733726 0  0.68 0.02664639863733726 0  0.7 0.02664639863733726 0  0.72 0.02664639863733726 0  0.74 0.02664639863733726 0  0.76 0.02664639863733726 0  0.78 0.02664639863733726 0  0.8 0.02664639863733726 0  0.82 0.02664639863733726 0  0.84 0.02664639863733726 0  0.86 0.02664639863733726 0  0.88 0.02664639863733726 0  0.9 0.02664639863733726 0  0.92 0.02664639863733726 0  0.9399999999999999 0.02664639863733726 0  0.96 0.02664639863733726 0  0.98 0.02664639863733726 0  1 0.02664639863733726 0  0 0.04101652939099896 0  0.02 0.04101652939099896 0  0.04 0.04101652939099896 0  0.06 0.04101652939099896 0  0.08 0.04101652939099896 0  0.1 0.04101652939099896 0  0.12 0.04101652939099896 0  0.14 0.04101652939099896 0  0.16 0.04101652939099896 0  0.18 0.04101652939099896 0  0.2 0.04101652939099896 0  0.22 0.04101652939099896 0  0.24 0.04101652939099896 0  0.26 0.04101652939099896 0  0.28 0.04101652939099896 0  0.3 0.04101652939099896 0  0.32 0.04101652939099896 0  0.34 0.04101652939099896 0  0.36 0.04101652939099896 0  0.38 0.04101652939099896 0  0.4 0.04101652939099896 0  0.42 0.04101652939099896 0  0.44 0.04101652939099896 0  0.46 0.04101652939099896 0  0.48 0.04101652939099896 0  0.5 0.04101652939099896 0  0.52 0.04101652939099896 0  0.54 0.04101652939099896 0  0.5600000000000001 0.04101652939099896 0  0.58 0.04101652939099896 0  0.6 0.04101652939099896 0  0.62 0.04101652939099896 0  0.64 0.04101652939099896 0  0.66 0.04101652939099896 0  0.68 0.04101652939099896 0  0.7 0.04101652939099896 0  0.72 0.04101652939099896 0  0.74 0.04101652939099896 0  0.76 0.04101652939099896 0  0.78 0.04101652939099896 0  0.8 0.04101652939099896 0  0.82 0.04101652939099896 0  0.84 0.04101652939099896 0  0.86 0.04101652939099896 0  0.88 0.04101652939099896 0  0.9 0.04101652939099896 0  0.92 0.04101652939099896 0  0.9399999999999999 0.04101652939099896 0  0.96 0.04101652939099896 0  0.98 0.04101652939099896 0  1 0.04101652939099896 0  0 0.05705811164099547 0  0.02 0.05705811164099547 0  0.04 0.05705811164099547 0  0.06 0.05705811164099547 0  0.08 0.05705811164099547 0  0.1 0.05705811164099547 0  0.12 0.05705811164099547 0  0.14 0.05705811164099547 0  0.16 0.05705811164099547 0  0.18 0.05705811164099547 0  0.2 0.05705811164099547 0  0.22 0.05705811164099547 0  0.24 0.05705811164099547 0  0.26 0.05705811164099547 0  0.28 0.05705811164099547 0  0.3 0.05705811164099547 0  0.32 0.05705811164099547 0  0.34 0.05705811164099547 0  0.36 0.05705811164099547 0  0.38 0.05705811164099547 0  0.4 0.05705811164099547 0  0.42 0.05705811164099547 0  0.44 0.05705811164099547 0  0.46 0.05705811164099547 0  0.48 0.05705811164099547 0  0.5 0.05705811164099547 0  0.52 0.05705811164099547 0  0.54 0.05705811164099547 0  0.5600000000000001 0.05705811164099547 0  0.58 0.05705811164099547 0  0.6 0.05705811164099547 0  0.62 0.05705811164099547 0  0.64 0.05705811164099547 0  0.66 0.05705811164099547 0  0.68 0.05705811164099547 0  0.7 0.05705811164099547 0  0.72 0.05705811164099547 0  0.74 0.05705811164099547 0  0.76 0.05705811164099547 0  0.78 0.05705811164099547 0  0.8 0.05705811164099547 0  0.82 0.05705811164099547 0  0.84 0.05705811164099547 0  0.86 0.05705811164099547 0  0.88 0.05705811164099547 0  0.9 0.05705811164099547 0  0.92 0.05705811164099547 0  0.9399999999999999 0.05705811164099547 0  0.96 0.05705811164099547 0  0.98 0.05705811164099547 0  1 0.05705811164099547 0  0 0.07667714377545 0  0.02 0.07667714377545 0  0.04 0.07667714377545 0  0.06 0.07667714377545 0  0.08 0.07667714377545 0  0.1 0.07667714377545 0  0.12 0.07667714377545 0  0.14 0.07667714377545 0  0.16 0.07667714377545 0  0.18 0.07667714377545 0  0.2 0.07667714377545 0  0.22 0.07667714377545 0  0.24 0.07667714377545 0  0.26 0.07667714377545 0  0.28 0.07667714377545 0  0.3 0.07667714377545 0  0.32 0.07667714377545 0  0.34 0.07667714377545 0  0.36 0.07667714377545 0  0.38 0.07667714377545 0  0.4 0.07667714377545 0  0.42 0.07667714377545 0  0.44 0.07667714377545 0  0.46 0.07667714377545 0  0.48 0.07667714377545 0  0.5 0.07667714377545 0  0.52 0.07667714377545 0  0.54 0.07667714377545 0  0.5600000000000001 0.07667714377545 0  0.58 0.07667714377545 0  0.6 0.07667714377545 0  0.62 0.07667714377545 0  0.64 0.07667714377545 0  0.66 0.07667714377545 0  0.68 0.07667714377545 0  0.7 0.07667714377545 0  0.72 0.07667714377545 0  0.74 0.07667714377545 0  0.76 0.07667714377545 0  0.78 0.07667714377545 0  0.8 0.07667714377545 0  0.82 0.07667714377545 0  0.84 0.07667714377545 0  0.86 0.07667714377545 0  0.88 0.07667714377545 0  0.9 0.07667714377545 0  0.92 0.07667714377545 0  0.9399999999999999 0.07667714377545 0  0.96 0.07667714377545 0  0.98 0.07667714377545 0  1 0.07667714377545 0  0 0.1098730133816912 0  0.02 0.1098730133816912 0  0.04 0.1098730133816912 0  0.06 0.1098730133816912 0  0.08 0.1098730133816912 0  0.1 0.1098730133816912 0  0.12 0.1098730133816912 0  0.14 0.1098730133816912 0  0.16 0.1098730133816912 0  0.18 0.1098730133816912 0  0.2 0.1098730133816912 0  0.22 0.1098730133816912 0  0.24 0.1098730133816912 0  0.26 0.1098730133816912 0  0.28 0.1098730133816912 0  0.3 0.1098730133816912 0  0.32 0.1098730133816912 0  0.34 0.1098730133816912 0  0.36 0.1098730133816912 0  0.38 0.1098730133816912 0  0.4 0.1098730133816912 0  0.42 0.1098730133816912 0  0.44 0.1098730133816912 0  0.46 0.1098730133816912 0  0.48 0.1098730133816912 0  0.5 0.1098730133816912 0  0.52 0.1098730133816912 0  0.54 0.1098730133816912 0  0.5600000000000001 0.1098730133816912 0  0.58 0.1098730133816912 0  0.6 0.1098730133816912 0  0.62 0.1098730133816912 0  0.64 0.1098730133816912 0  0.66 0.1098730133816912 0  0.68 0.1098730133816912 0  0.7 0.1098730133816912 0  0.72 0.1098730133816912 0  0.74 0.1098730133816912 0  0.76 0.1098730133816912 0  0.78 0.1098730133816912 0  0.8 0.1098730133816912 0  0.82 0.1098730133816912 0  0.84 0.1098730133816912 0  0.86 0.1098730133816912 0  0.88 0.1098730133816912 0  0.9 0.1098730133816912 0  0.92 0.1098730133816912 0  0.9399999999999999 0.1098730133816912 0  0.96 0.1098730133816912 0  0.98 0.1098730133816912 0  1 0.1098730133816912 0  0 0.1603283563168221 0  0.02 0.1603283563168221 0  0.04 0.1603283563168221 0  0.06 0.1603283563168221 0  0.08 0.1603283563168221 0  0.1 0.1603283563168221 0  0.12 0.1603283563168221 0  0.14 0.1603283563168221 0  0.16 0.1603283563168221 0  0.18 0.1603283563168221 0  0.2 0.1603283563168221 0  0.22 0.1603283563168221 0  0.24 0.1603283563168221 0  0.26 0.1603283563168221 0  0.28 0.1603283563168221 0  0.3 0.1603283563168221 0  0.32 0.1603283563168221 0  0.34 0.1603283563168221 0  0.36 0.1603283563168221 0  0.38 0.1603283563168221 0  0.4 0.1603283563168221 0  0.42 0.1603283563168221 0  0.44 0.1603283563168221 0  0.46 0.1603283563168221 0  0.48 0.1603283563168221 0  0.5 0.1603283563168221 0  0.52 0.1603283563168221 0  0.54 0.1603283563168221 0  0.5600000000000001 0.1603283563168221 0  0.58 0.1603283563168221 0 
[...]
<PointData  Vectors="u_paraw"> 
<DataArray  type="Float64"  Name="u_paraw"  NumberOfComponents="3" format="ascii">-9.0694861679380568e-05 -1.8539876572949351e-04 0.0000000000000000e+00  -9.0694861674395203e-05 -1.8539876571519289e-04 0.0000000000000000e+00  -9.0694861681245924e-05 -1.8539876572553618e-04 0.0000000000000000e+00  -9.0694861676508204e-05 -1.8539876571956220e-04 0.0000000000000000e+00  -9.0694861688195728e-05 -1.8539876574046561e-04 0.0000000000000000e+00  -9.0694861678390081e-05 -1.8539876573464356e-04 0.0000000000000000e+00  -9.0694861681625612e-05 -1.8539876572409400e-04 0.0000000000000000e+00  -9.0694861688195714e-05 -1.8539876573553260e-04 0.0000000000000000e+00  -9.0694861690556334e-05 -1.8539876573475198e-04 0.0000000000000000e+00  -9.0694861677399608e-05 -1.8539876573389519e-04 0.0000000000000000e+00  -9.0694861688146193e-05 -1.8539876573329915e-04 0.0000000000000000e+00  -9.0694861676854851e-05 -1.8539876572464721e-04 0.0000000000000000e+00  -9.0694861685901122e-05 -1.8539876573552149e-04 0.0000000000000000e+00  -9.0694861676673261e-05 -1.8539876573075100e-04 0.0000000000000000e+00  -9.0694861683012266e-05 -1.8539876572615452e-04 0.0000000000000000e+00  -9.0694861677465636e-05 -1.8539876573062089e-04 0.0000000000000000e+00  -9.0694861674378682e-05 -1.8539876573398192e-04 0.0000000000000000e+00  -9.0694861678852290e-05 -1.8539876573287658e-04 0.0000000000000000e+00  -9.0694861679842763e-05 -1.8539876574012935e-04 0.0000000000000000e+00  -9.0694861679479596e-05 -1.8539876573059921e-04 0.0000000000000000e+00  -9.0694861672414257e-05 -1.8539876572551484e-04 0.0000000000000000e+00  -9.0694861691233147e-05 -1.8539876572799713e-04 0.0000000000000000e+00  -9.0694861671985049e-05 -1.8539876573451318e-04 0.0000000000000000e+00  -9.0694861681344979e-05 -1.8539876572717367e-04 0.0000000000000000e+00  -9.0694861683623051e-05 -1.8539876572086308e-04 0.0000000000000000e+00  -9.0694861681146882e-05 -1.8539876573345066e-04 0.0000000000000000e+00  -9.0694861686528428e-05 -1.8539876573333140e-04 0.0000000000000000e+00  -9.0694861675220579e-05 -1.8539876571491081e-04 0.0000000000000000e+00  -9.0694861687601436e-05 -1.8539876573614051e-04 0.0000000000000000e+00  -9.0694861675765336e-05 -1.8539876571916088e-04 0.0000000000000000e+00  -9.0694861675699308e-05 -1.8539876572721650e-04 0.0000000000000000e+00  -9.0694861686577949e-05 -1.8539876572897291e-04 0.0000000000000000e+00  -9.0694861671638388e-05 -1.8539876572445178e-04 0.0000000000000000e+00  -9.0694861681014813e-05 -1.8539876572942827e-04 0.0000000000000000e+00  -9.0694861676805330e-05 -1.8539876572910404e-04 0.0000000000000000e+00  -9.0694861678538644e-05 -1.8539876572496136e-04 0.0000000000000000e+00  -9.0694861683788134e-05 -1.8539876573937041e-04 0.0000000000000000e+00  -9.0694861681658626e-05 -1.8539876571659132e-04 0.0000000000000000e+00  -9.0694861687683971e-05 -1.8539876574024861e-04 0.0000000000000000e+00  -9.0694861682764647e-05 -1.8539876573441560e-04 0.0000000000000000e+00  -9.0694861676640247e-05 -1.8539876572014853e-04 0.0000000000000000e+00  -9.0694861684464947e-05 -1.8539876573220383e-04 0.0000000000000000e+00  -9.0694861683457968e-05 -1.8539876572213159e-04 0.0000000000000000e+00  -9.0694861681212910e-05 -1.8539876573285435e-04 0.0000000000000000e+00  -9.0694861681295445e-05 -1.8539876573343982e-04 0.0000000000000000e+00  -9.0694861686115727e-05 -1.8539876573113047e-04 0.0000000000000000e+00  -9.0694861680833236e-05 -1.8539876571955222e-04 0.0000000000000000e+00  -9.0694861684365906e-05 -1.8539876571980056e-04 0.0000000000000000e+00  -9.0694861674692328e-05 -1.8539876572396389e-04 0.0000000000000000e+00  -9.0694861682285918e-05 -1.8539876573055584e-04 0.0000000000000000e+00  -9.0694861679380541e-05 -1.4925596895991668e-14 0.0000000000000000e+00  9.5828491920631540e-05 4.7967367256514579e-04 0.0000000000000000e+00  9.5828491916811760e-05 4.7967367255762142e-04 0.0000000000000000e+00  9.5828491912253720e-05 4.7967367256202339e-04 0.0000000000000000e+00  9.5828491907535204e-05 4.7967367255588670e-04 0.0000000000000000e+00  9.5828491903747530e-05 4.7967367254792866e-04 0.0000000000000000e+00  9.5828491916169804e-05 4.7967367255263442e-04 0.0000000000000000e+00  9.5828491911098177e-05 4.7967367254968469e-04 0.0000000000000000e+00  9.5828491905898154e-05 4.7967367254530521e-04 0.0000000000000000e+00  9.5828491907085816e-05 4.7967367255595208e-04 0.0000000000000000e+00  9.5828491916683390e-05 4.7967367255150615e-04 0.0000000000000000e+00  9.5828491908883355e-05 4.7967367255200558e-04 0.0000000000000000e+00  9.5828491914211775e-05 4.7967367255460767e-04 0.0000000000000000e+00  9.5828491909140148e-05 4.7967367255213498e-04 0.0000000000000000e+00  9.5828491915592032e-05 4.7967367256163259e-04 0.0000000000000000e+00  9.5828491916747589e-05 4.7967367257290960e-04 0.0000000000000000e+00  9.5828491906764824e-05 4.7967367254066412e-04 0.0000000000000000e+00  9.5828491915399437e-05 4.7967367255380465e-04 0.0000000000000000e+00  9.5828491914275974e-05 4.7967367254845000e-04 0.0000000000000000e+00  9.5828491924676020e-05 4.7967367255955093e-04 0.0000000000000000e+00  9.5828491917485862e-05 4.7967367255508401e-04 0.0000000000000000e+00  9.5828491914243868e-05 4.7967367254818979e-04 0.0000000000000000e+00  9.5828491908626562e-05 4.7967367254452388e-04 0.0000000000000000e+00  9.5828491908626562e-05 4.7967367255504064e-04 0.0000000000000000e+00  9.5828491918705617e-05 4.7967367255512868e-04 0.0000000000000000e+00  9.5828491910616696e-05 4.7967367254851375e-04 0.0000000000000000e+00  9.5828491905705559e-05 4.7967367255634169e-04 0.0000000000000000e+00  9.5828491911451261e-05 4.7967367255673200e-04 0.0000000000000000e+00  9.5828491917614259e-05 4.7967367255629832e-04 0.0000000000000000e+00  9.5828491902752463e-05 4.7967367255543367e-04 0.0000000000000000e+00  9.5828491919829081e-05 4.7967367255018342e-04 0.0000000000000000e+00  9.5828491905320382e-05 4.7967367254324452e-04 0.0000000000000000e+00  9.5828491911290772e-05 4.7967367255243856e-04 0.0000000000000000e+00  9.5828491913666096e-05 4.7967367255033521e-04 0.0000000000000000e+00  9.5828491911290772e-05 4.7967367255241687e-04 0.0000000000000000e+00  9.5828491917068580e-05 4.7967367255261474e-04 0.0000000000000000e+00  9.5828491915495728e-05 4.7967367255063878e-04 0.0000000000000000e+00  9.5828491912478434e-05 4.7967367255790294e-04 0.0000000000000000e+00  9.5828491910680895e-05 4.7967367254252895e-04 0.0000000000000000e+00  9.5828491907021617e-05 4.7967367255222172e-04 0.0000000000000000e+00  9.5828491913601898e-05 4.7967367255376129e-04 0.0000000000000000e+00  9.5828491920920439e-05 4.7967367256165699e-04 0.0000000000000000e+00  9.5828491907759891e-05 4.7967367255981113e-04 0.0000000000000000e+00  9.5828491916908078e-05 4.7967367255658021e-04 0.0000000000000000e+00  9.5828491910937688e-05 4.7967367255111583e-04 0.0000000000000000e+00  9.5828491917325373e-05 4.7967367255976777e-04 0.0000000000000000e+00  9.5828491910456207e-05 4.7967367255311076e-04 0.0000000000000000e+00  9.5828491910231506e-05 4.7967367254600111e-04 0.0000000000000000e+00  9.5828491916940184e-05 4.7967367256930874e-04 0.0000000000000000e+00  9.5828491908080883e-05 4.7967367255426002e-04 0.0000000000000000e+00  9.5828491910327811e-05 4.7967367255618990e-04 0.0000000000000000e+00  9.5828491920631553e-05 -1.3631825002196887e-05 0.0000000000000000e+00  -1.3452997117621853e-04 5.0564739924232466e-05 0.0000000000000000e+00  -1.3452997117591674e-04 5.0564739911525616e-05 0.0000000000000000e+00  -1.3452997117911574e-04 5.0564739912089415e-05 0.0000000000000000e+00  -1.3452997117754641e-04 5.0564739922844660e-05 0.0000000000000000e+00  -1.3452997118309942e-04 5.0564739928612615e-05 0.0000000000000000e+00  -1.3452997118937671e-04 5.0564739904890326e-05 0.0000000000000000e+00  -1.3452997117869322e-04 5.0564739912349556e-05 0.0000000000000000e+00  -1.3452997117833107e-04 5.0564739921543671e-05 0.0000000000000000e+00  -1.3452997118388409e-04 5.0564739921196727e-05 0.0000000000000000e+00  -1.3452997117205379e-04 5.0564739931258042e-05 0.0000000000000000e+00  -1.3452997117742571e-04 5.0564739922627874e-05 0.0000000000000000e+00  -1.3452997117790856e-04 5.0564739916686446e-05 0.0000000000000000e+00  -1.3452997117507172e-04 5.0564739923711995e-05 0.0000000000000000e+00  -1.3452997117314024e-04 5.0564739920806333e-05 0.0000000000000000e+00  -1.3452997117513208e-04 5.0564739920155960e-05 0.0000000000000000e+00  -1.3452997119517114e-04 5.0564739907405594e-05 0.0000000000000000e+00  -1.3452997116233603e-04 5.0564739934076967e-05 0.0000000000000000e+00  -1.3452997118189224e-04 5.0564739919678912e-05 0.0000000000000000e+00  -1.3452997117639959e-04 5.0564739910311256e-05 0.0000000000000000e+00  -1.3452997117404560e-04 5.0564739912262820e-05 0.0000000000000000e+00  -1.3452997117845180e-04 5.0564739917814084e-05 0.0000000000000000e+00  -1.3452997118412551e-04 5.0564739911135249e-05 0.0000000000000000e+00  -1.3452997117434742e-04 5.0564739923495154e-05 0.0000000000000000e+00  -1.3452997118044364e-04 5.0564739917293667e-05 0.0000000000000000e+00  -1.3452997117591674e-04 5.0564739925750295e-05 0.0000000000000000e+00  -1.3452997118484981e-04 5.0564739917597094e-05 0.0000000000000000e+00  -1.3452997118134900e-04 5.0564739917293518e-05 0.0000000000000000e+00  -1.3452997117833107e-04 5.0564739912262820e-05 0.0000000000000000e+00  -1.3452997117971934e-04 5.0564739928005720e-05 0.0000000000000000e+00  -1.3452997118810917e-04 5.0564739910094415e-05 0.0000000000000000e+00  -1.3452997117929683e-04 5.0564739919158345e-05 0.0000000000000000e+00  -1.3452997117615817e-04 5.0564739918984873e-05 0.0000000000000000e+00  -1.3452997117688247e-04 5.0564739923885467e-05 0.0000000000000000e+00  -1.3452997117808965e-04 5.0564739917770567e-05 0.0000000000000000e+00  -1.3452997118871277e-04 5.0564739907969664e-05 0.0000000000000000e+00  -1.3452997118177152e-04 5.0564739912826605e-05 0.0000000000000000e+00  -1.3452997116909619e-04 5.0564739916296052e-05 0.0000000000000000e+00  -1.3452997118255618e-04 5.0564739917120045e-05 0.0000000000000000e+00  -1.3452997117664105e-04 5.0564739921370118e-05 0.0000000000000000e+00  -1.3452997116668186e-04 5.0564739930954465e-05 0.0000000000000000e+00  -1.3452997118002113e-04 5.0564739914908557e-05 0.0000000000000000e+00  -1.3452997117483027e-04 5.0564739923625258e-05 0.0000000000000000e+00  -1.3452997118629841e-04 5.0564739914517960e-05 0.0000000000000000e+00  -1.3452997118460839e-04 5.0564739916773101e-05 0.0000000000000000e+00  -1.3452997117688247e-04 5.0564739921543590e-05 0.0000000000000000e+00  -1.3452997118068507e-04 5.0564739915732267e-05 0.0000000000000000e+00  -1.3452997117959861e-04 5.0564739922714813e-05 0.0000000000000000e+00  -1.3452997117670138e-04 5.0564739920155811e-05 0.0000000000000000e+00  -1.3452997118020219e-04 5.0564739927441650e-05 0.0000000000000000e+00  -1.3452997116951870e-04 5.0564739930260576e-05 0.0000000000000000e+00  -1.3452997117621853e-04 5.8901708122538802e-04 0.0000000000000000e+00  2.4849648468904981e-04 1.1953526069373270e-03 0.0000000000000000e+00  2.4849648467585681e-04 1.1953526069307351e-03 0.0000000000000000e+00  2.4849648468948236e-04 1.1953526069261383e-03 0.0000000000000000e+00  2.4849648468959051e-04 1.1953526069383676e-03 0.0000000000000000e+00  2.4849648469921486e-04 1.1953526069421840e-03 0.0000000000000000e+00  2.4849648468461608e-04 1.1953526069320370e-03 0.0000000000000000e+00  2.4849648469013120e-04 1.1953526069345504e-03 0.0000000000000000e+00  2.4849648468904976e-04 1.1953526069409708e-03 0.0000000000000000e+00  2.4849648469553811e-04 1.1953526069482566e-03 0.0000000000000000e+00  2.4849648469175327e-04 1.1953526069370657e-03 0.0000000000000000e+00  2.4849648469088813e-04 1.1953526069358534e-03 0.0000000000000000e+00  2.4849648468558931e-04 1.1953526069342921e-03 0.0000000000000000e+00  2.4849648468439983e-04 1.1953526069170297e-03 0.0000000000000000e+00  2.4849648469110443e-04 1.1953526069351575e-03 0.0000000000000000e+00  2.4849648469305090e-04 1.1953526069330791e-03 0.0000000000000000e+00  2.4849648468180447e-04 1.1953526069293462e-03 0.0000000000000000e+00  2.4849648469175327e-04 1.1953526069377596e-03 0.0000000000000000e+00  2.4849648468504862e-04 1.1953526069342934e-03 0.0000000000000000e+00  2.4849648468342655e-04 1.1953526069283921e-03 0.0000000000000000e+00  2.4849648469272656e-04 1.1953526069184174e-03 0.0000000000000000e+00  2.4849648469834972e-04 1.1953526069418395e-03 0.0000000000000000e+00  2.4849648468494053e-04 1.1953526069287390e-03 0.0000000000000000e+00  2.4849648468623821e-04 1.1953526069246624e-03 0.0000000000000000e+00  2.4849648469002305e-04 1.1953526069475640e-03 0.0000000000000000e+00  2.4849648468667075e-04 1.1953526069275247e-03 0.0000000000000000e+00  2.4849648468083124e-04 1.1953526069282186e-03 0.0000000000000000e+00  2.4849648468710329e-04 1.1953526069385402e-03 0.0000000000000000e+00  2.4849648468526492e-04 1.1953526069354177e-03 0.0000000000000000e+00  2.4849648469088819e-04 1.1953526069254498e-03 0.0000000000000000e+00  2.4849648468288585e-04 1.1953526069266574e-03 0.0000000000000000e+00  2.4849648468915796e-04 1.1953526069394943e-03 0.0000000000000000e+00  2.4849648469175327e-04 1.1953526069367188e-03 0.0000000000000000e+00  2.4849648469175327e-04 1.1953526069371524e-03 0.0000000000000000e+00  2.4849648469002305e-04 1.1953526069342902e-03 0.0000000000000000e+00  2.4849648468396724e-04 1.1953526069277049e-03 0.0000000000000000e+00  2.4849648468710329e-04 1.1953526069298666e-03 0.0000000000000000e+00  2.4849648468959051e-04 1.1953526069238818e-03 0.0000000000000000e+00  2.4849648469251026e-04 1.1953526069334228e-03 0.0000000000000000e+00  2.4849648469543002e-04 1.1953526069442648e-03 0.0000000000000000e+00  2.4849648469315910e-04 1.1953526069244890e-03 0.0000000000000000e+00  2.4849648469056374e-04 1.1953526069387204e-03 0.0000000000000000e+00  2.4849648468623821e-04 1.1953526069288258e-03 0.0000000000000000e+00  2.4849648469251026e-04 1.1953526069290860e-03 0.0000000000000000e+00  2.4849648468991490e-04 1.1953526069325554e-03 0.0000000000000000e+00  2.4849648469856607e-04 1.1953526069378463e-03 0.0000000000000000e+00  2.4849648468948236e-04 1.1953526069267441e-03 0.0000000000000000e+00  2.4849648469553817e-04 1.1953526069442715e-03 0.0000000000000000e+00  2.4849648468775213e-04 1.1953526069315146e-03 0.0000000000000000e+00  2.4849648469326725e-04 1.1953526069377596e-03 0.0000000000000000e+00  2.4849648469034750e-04 1.1953526069415760e-03 0.0000000000000000e+00  2.4849648468904981e-04 1.0330130347822281e-04 0.0000000000000000e+00  -3.4315758000172522e-04 -2.0997962164358630e-04 0.0000000000000000e+00  -3.4315758000473149e-04 -2.0997962164445366e-04 0.0000000000000000e+00  -3.4315758000897577e-04 -2.0997962165928560e-04 0.0000000000000000e+00  -3.4315758000809149e-04 -2.0997962165173945e-04 0.0000000000000000e+00  -3.4315757999933786e-04 -2.0997962163916270e-04 0.0000000000000000e+00  -3.4315758001189357e-04 -2.0997962163829553e-04 0.0000000000000000e+00  -3.4315758002869345e-04 -2.0997962165685680e-04 0.0000000000000000e+00  -3.4315758000101783e-04 -2.0997962164098435e-04 0.0000000000000000e+00  -3.4315758001348512e-04 -2.0997962164991818e-04 0.0000000000000000e+00  -3.4315758001419251e-04 -2.0997962165199957e-04 0.0000000000000000e+00  -3.4315758001843668e-04 -2.0997962166466333e-04 0.0000000000000000e+00  -3.4315758001666829e-04 -2.0997962164818345e-04 0.0000000000000000e+00  -3.4315758001923248e-04 -2.0997962165217305e-04 0.0000000000000000e+00  -3.4315758000110630e-04 -2.0997962165000464e-04 0.0000000000000000e+00  -3.4315757999854211e-04 -2.0997962163881619e-04 0.0000000000000000e+00  -3.4315758000977146e-04 -2.0997962165607617e-04 0.0000000000000000e+00  -3.4315758000552730e-04 -2.0997962165382103e-04 0.0000000000000000e+00  -3.4315758000782624e-04 -2.0997962163404570e-04 0.0000000000000000e+00  -3.4315758001428093e-04 -2.0997962165989257e-04 0.0000000000000000e+00  -3.4315758000729569e-04 -2.0997962165156589e-04 0.0000000000000000e+00  -3.4315757999783472e-04 -2.0997962163231098e-04 0.0000000000000000e+00  -3.4315758001410410e-04 -2.0997962165503534e-04 0.0000000000000000e+00  -3.4315758000915254e-04 -2.0997962165260673e-04 0.0000000000000000e+00  -3.4315758000420099e-04 -2.0997962163898966e-04 0.0000000000000000e+00  -3.4315758001401568e-04 -2.0997962165659659e-04 0.0000000000000000e+00  -3.4315758001843668e-04 -2.0997962166639778e-04 0.0000000000000000e+00  -3.4315758000234419e-04 -2.0997962164375964e-04 0.0000000000000000e+00  -3.4315757999244109e-04 -2.0997962163872894e-04 0.0000000000000000e+00  -3.4315757999880736e-04 -2.0997962163274528e-04 0.0000000000000000e+00  -3.4315758001260096e-04 -2.0997962166318854e-04 0.0000000000000000e+00  -3.4315758000287469e-04 -2.0997962164428006e-04 0.0000000000000000e+00  -3.4315758000526205e-04 -2.0997962164792297e-04 0.0000000000000000e+00  -3.4315758001268937e-04 -2.0997962166362222e-04 0.0000000000000000e+00  -3.4315758000367049e-04 -2.0997962165434145e-04 0.0000000000000000e+00  -3.4315758000535046e-04 -2.0997962164141890e-04 0.0000000000000000e+00  -3.4315758000313994e-04 -2.0997962164679540e-04 0.0000000000000000e+00  -3.4315758000632310e-04 -2.0997962165902520e-04 0.0000000000000000e+00  -3.4315758000481991e-04 -2.0997962166327528e-04 0.0000000000000000e+00  -3.4315758000517363e-04 -2.0997962166075993e-04 0.0000000000000000e+00  -3.4315758000915254e-04 -2.0997962165321388e-04 0.0000000000000000e+00  -3.4315757999739264e-04 -2.0997962163673515e-04 0.0000000000000000e+00  -3.4315758000879888e-04 -2.0997962166266812e-04 0.0000000000000000e+00  -3.4315758000596938e-04 -2.0997962165442819e-04 0.0000000000000000e+00  -3.4315758000411258e-04 -2.0997962164254533e-04 0.0000000000000000e+00  -3.4315758000119472e-04 -2.0997962165876500e-04 0.0000000000000000e+00  -3.4315758000402416e-04 -2.0997962166448958e-04 0.0000000000000000e+00  -3.4315758000738410e-04 -2.0997962165122009e-04 0.0000000000000000e+00  -3.4315758000428941e-04 -2.0997962165043832e-04 0.0000000000000000e+00  -3.4315757999721580e-04 -2.0997962163543297e-04 0.0000000000000000e+00  -3.4315758000296311e-04 -2.0997962165460166e-04 0.0000000000000000e+00  -3.4315758000172522e-04 1.0946928320362320e-03 0.0000000000000000e+00  3.6972652963726820e-04 1.7573720965237058e-03 0.0000000000000000e+00  3.6972652963005668e-04 1.7573720965328998e-03 0.0000000000000000e+00  3.6972652961824657e-04 1.7573720965183286e-03 0.0000000000000000e+00  3.6972652961375245e-04 1.7573720965041030e-03 0.0000000000000000e+00  3.6972652960591383e-04 1.7573720965060112e-03 0.0000000000000000e+00  3.6972652961322986e-04 1.7573720965127779e-03 0.0000000000000000e+00  3.6972652960319644e-04 1.7573720964711419e-03 0.0000000000000000e+00  3.6972652962378582e-04 1.7573720964902265e-03 0.0000000000000000e+00  3.6972652962535352e-04 1.7573720965030635e-03 0.0000000000000000e+00  3.6972652962577153e-04 1.7573720964969893e-03 0.0000000000000000e+00  3.6972652962765284e-04 1.7573720965094819e-03 0.0000000000000000e+00  3.6972652963246052e-04 1.7573720965103493e-03 0.0000000000000000e+00  3.6972652961960519e-04 1.7573720964841524e-03 0.0000000000000000e+00  3.6972652963193788e-04 1.7573720965167652e-03 0.0000000000000000e+00  3.6972652962242710e-04 1.7573720965015046e-03 0.0000000000000000e+00  3.6972652961981422e-04 1.7573720964860606e-03 0.0000000000000000e+00  3.6972652961730587e-04 1.7573720964976832e-03 0.0000000000000000e+00  3.6972652962065036e-04 1.7573720965042801e-03 0.0000000000000000e+00  3.6972652961897809e-04 1.7573720965072242e-03 0.0000000000000000e+00  3.6972652962263613e-04 1.7573720965136427e-03 0.0000000000000000e+00  3.6972652961730587e-04 1.7573720965018515e-03 0.0000000000000000e+00  3.6972652961322981e-04 1.7573720964891831e-03 0.0000000000000000e+00  3.6972652961918712e-04 1.7573720965032343e-03 0.0000000000000000e+00  3.6972652960946730e-04 1.7573720964964739e-03 0.0000000000000000e+00  3.6972652961281174e-04 1.7573720965070507e-03 0.0000000000000000e+00  3.6972652961291626e-04 1.757372