<?xml version="1.0"?>
<VTKFile type="UnstructuredGrid"  version="0.1"  >
<UnstructuredGrid>
<Piece  NumberOfPoints="2601" NumberOfCells="5000">
<Points>
<DataArray  type="Float64"  NumberOfComponents="3"  format="ascii">0 0 0  0.02 0 0  0.04 0 0  0.06 0 0  0.08 0 0  0.1 0 0  0.12 0 0  0.14 0 0  0.16 0 0  0.18 0 0  0.2 0 0  0.22 0 0  0.24 0 0  0.26 0 0  0.28 0 0  0.3 0 0  0.32 0 0  0.34 0 0  0.36 0 0  0.38 0 0  0.4 0 0  0.42 0 0  0.44 0 0  0.46 0 0  0.48 0 0  0.5 0 0  0.52 0 0  0.54 0 0  0.5600000000000001 0 0  0.58 0 0  0.6 0 0  0.62 0 0  0.64 0 0  0.66 0 0  0.68 0 0  0.7 0 0  0.72 0 0  0.74 0 0  0.76 0 0  0.78 0 0  0.8 0 0  0.82 0 0  0.84 0 0  0.86 0 0  0.88 0 0  0.9 0 0  0.92 0 0  0.9399999999999999 0 0  0.96 0 0  0.98 0 0  1 0 0  0 0.01313563088723984 0  0.02 0.01313563088723984 0  0.04 0.01313563088723984 0  0.06 0.01313563088723984 0  0.08 0.01313563088723984 0  0.1 0.01313563088723984 0  0.12 0.01313563088723984 0  0.14 0.01313563088723984 0  0.16 0.01313563088723984 0  0.18 0.01313563088723984 0  0.2 0.01313563088723984 0  0.22 0.01313563088723984 0  0.24 0.01313563088723984 0  0.26 0.01313563088723984 0  0.28 0.01313563088723984 0  0.3 0.01313563088723984 0  0.32 0.01313563088723984 0  0.34 0.01313563088723984 0  0.36 0.01313563088723984 0  0.38 0.01313563088723984 0  0.4 0.01313563088723984 0  0.42 0.01313563088723984 0  0.44 0.01313563088723984 0  0.46 0.01313563088723984 0  0.48 0.01313563088723984 0  0.5 0.01313563088723984 0  0.52 0.01313563088723984 0  0.54 0.01313563088723984 0  0.5600000000000001 0.01313563088723984 0  0.58 0.01313563088723984 0  0.6 0.01313563088723984 0  0.62 0.01313563088723984 0  0.64 0.01313563088723984 0  0.66 0.01313563088723984 0  0.68 0.01313563088723984 0  0.7 0.01313563088723984 0  0.72 0.01313563088723984 0  0.74 0.01313563088723984 0  0.76 0.01313563088723984 0  0.78 0.01313563088723984 0  0.8 0.01313563088723984 0  0.82 0.01313563088723984 0  0.84 0.01313563088723984 0  0.86 0.01313563088723984 0  0.88 0.01313563088723984 0  0.9 0.01313563088723984 0  0.92 0.01313563088723984 0  0.9399999999999999 0.01313563088723984 0  0.96 0.01313563088723984 0  0.98 0.01313563088723984 0  1 0.01313563088723984 0  0 0.02664639863733726 0  0.02 0.02664639863733726 0  0.04 0.02664639863733726 0  0.06 0.02664639863733726 0  0.08 0.02664639863733726 0  0.1 0.02664639863733726 0  0.12 0.02664639863733726 0  0.14 0.02664639863733726 0  0.16 0.02664639863733726 0  0.18 0.02664639863733726 0  0.2 0.02664639863733726 0  0.22 0.02664639863733726 0  0.24 0.02664639863733726 0  0.26 0.02664639863733726 0  0.28 0.02664639863733726 0  0.3 0.02664639863733726 0  0.32 0.02664639863733726 0  0.34 0.02664639863733726 0  0.36 0.02664639863733726 0  0.38 0.02664639863733726 0  0.4 0.02664639863733726 0  0.42 0.02664639863733726 0  0.44 0.02664639863733726 0  0.46 0.02664639863733726 0  0.48 0.02664639863733726 0  0.5 0.02664639863733726 0  0.52 0.02664639863733726 0  0.54 0.02664639863733726 0  0.5600000000000001 0.02664639863733726 0  0.58 0.02664639863733726 0  0.6 0.02664639863733726 0  0.62 0.02664639863733726 0  0.64 0.02664639863733726 0  0.66 0.02664639863733726 0  0.68 0.02664639863733726 0  0.7 0.02664639863733726 0  0.72 0.02664639863733726 0  0.74 0.02664639863733726 0  0.76 0.02664639863733726 0  0.78 0.02664639863733726 0  0.8 0.02664639863733726 0  0.82 0.02664639863733726 0  0.84 0.02664639863733726 0  0.86 0.02664639863733726 0  0.88 0.02664639863733726 0  0.9 0.02664639863733726 0  0.92 0.02664639863733726 0  0.9399999999999999 0.02664639863733726 0  0.96 0.02664639863733726 0  0.98 0.02664639863733726 0  1 0.02664639863733726 0  0 0.04101652939099896 0  0.02 0.04101652939099896 0  0.04 0.04101652939099896 0  0.06 0.04101652939099896 0  0.08 0.04101652939099896 0  0.1 0.04101652939099896 0  0.12 0.04101652939099896 0  0.14 0.04101652939099896 0  0.16 0.04101652939099896 0  0.18 0.04101652939099896 0  0.2 0.04101652939099896 0  0.22 0.04101652939099896 0  0.24 0.04101652939099896 0  0.26 0.04101652939099896 0  0.28 0.04101652939099896 0  0.3 0.04101652939099896 0  0.32 0.04101652939099896 0  0.34 0.04101652939099896 0  0.36 0.04101652939099896 0  0.38 0.04101652939099896 0  0.4 0.04101652939099896 0  0.42 0.04101652939099896 0  0.44 0.04101652939099896 0  0.46 0.04101652939099896 0  0.48 0.04101652939099896 0  0.5 0.04101652939099896 0  0.52 0.04101652939099896 0  0.54 0.04101652939099896 0  0.5600000000000001 0.04101652939099896 0  0.58 0.04101652939099896 0  0.6 0.04101652939099896 0  0.62 0.04101652939099896 0  0.64 0.04101652939099896 0  0.66 0.04101652939099896 0  0.68 0.04101652939099896 0  0.7 0.04101652939099896 0  0.72 0.04101652939099896 0  0.74 0.04101652939099896 0  0.76 0.04101652939099896 0  0.78 0.04101652939099896 0  0.8 0.04101652939099896 0  0.82 0.04101652939099896 0  0.84 0.04101652939099896 0  0.86 0.04101652939099896 0  0.88 0.04101652939099896 0  0.9 0.04101652939099896 0  0.92 0.04101652939099896 0  0.9399999999999999 0.04101652939099896 0  0.96 0.04101652939099896 0  0.98 0.04101652939099896 0  1 0.04101652939099896 0  0 0.05705811164099547 0  0.02 0.05705811164099547 0  0.04 0.05705811164099547 0  0.06 0.05705811164099547 0  0.08 0.05705811164099547 0  0.1 0.05705811164099547 0  0.12 0.05705811164099547 0  0.14 0.05705811164099547 0  0.16 0.05705811164099547 0  0.18 0.05705811164099547 0  0.2 0.05705811164099547 0  0.22 0.05705811164099547 0  0.24 0.05705811164099547 0  0.26 0.05705811164099547 0  0.28 0.05705811164099547 0  0.3 0.05705811164099547 0  0.32 0.05705811164099547 0  0.34 0.05705811164099547 0  0.36 0.05705811164099547 0  0.38 0.05705811164099547 0  0.4 0.05705811164099547 0  0.42 0.05705811164099547 0  0.44 0.05705811164099547 0  0.46 0.05705811164099547 0  0.48 0.05705811164099547 0  0.5 0.05705811164099547 0  0.52 0.05705811164099547 0  0.54 0.05705811164099547 0  0.5600000000000001 0.05705811164099547 0  0.58 0.05705811164099547 0  0.6 0.05705811164099547 0  0.62 0.05705811164099547 0  0.64 0.05705811164099547 0  0.66 0.05705811164099547 0  0.68 0.05705811164099547 0  0.7 0.05705811164099547 0  0.72 0.05705811164099547 0  0.74 0.05705811164099547 0  0.76 0.05705811164099547 0  0.78 0.05705811164099547 0  0.8 0.05705811164099547 0  0.82 0.05705811164099547 0  0.84 0.05705811164099547 0  0.86 0.05705811164099547 0  0.88 0.05705811164099547 0  0.9 0.05705811164099547 0  0.92 0.05705811164099547 0  0.9399999999999999 0.05705811164099547 0  0.96 0.05705811164099547 0  0.98 0.05705811164099547 0  1 0.05705811164099547 0  0 0.07667714377545 0  0.02 0.07667714377545 0  0.04 0.07667714377545 0  0.06 0.07667714377545 0  0.08 0.07667714377545 0  0.1 0.07667714377545 0  0.12 0.07667714377545 0  0.14 0.07667714377545 0  0.16 0.07667714377545 0  0.18 0.07667714377545 0  0.2 0.07667714377545 0  0.22 0.07667714377545 0  0.24 0.07667714377545 0  0.26 0.07667714377545 0  0.28 0.07667714377545 0  0.3 0.07667714377545 0  0.32 0.07667714377545 0  0.34 0.07667714377545 0  0.36 0.07667714377545 0  0.38 0.07667714377545 0  0.4 0.07667714377545 0  0.42 0.07667714377545 0  0.44 0.07667714377545 0  0.46 0.07667714377545 0  0.48 0.07667714377545 0  0.5 0.07667714377545 0  0.52 0.07667714377545 0  0.54 0.07667714377545 0  0.5600000000000001 0.07667714377545 0  0.58 0.07667714377545 0  0.6 0.07667714377545 0  0.62 0.07667714377545 0  0.64 0.07667714377545 0  0.66 0.07667714377545 0  0.68 0.07667714377545 0  0.7 0.07667714377545 0  0.72 0.07667714377545 0  0.74 0.07667714377545 0  0.76 0.07667714377545 0  0.78 0.07667714377545 0  0.8 0.07667714377545 0  0.82 0.07667714377545 0  0.84 0.07667714377545 0  0.86 0.07667714377545 0  0.88 0.07667714377545 0  0.9 0.07667714377545 0  0.92 0.07667714377545 0  0.9399999999999999 0.07667714377545 0  0.96 0.07667714377545 0  0.98 0.07667714377545 0  1 0.07667714377545 0  0 0.1098730133816912 0  0.02 0.1098730133816912 0  0.04 0.1098730133816912 0  0.06 0.1098730133816912 0  0.08 0.1098730133816912 0  0.1 0.1098730133816912 0  0.12 0.1098730133816912 0  0.14 0.1098730133816912 0  0.16 0.1098730133816912 0  0.18 0.1098730133816912 0  0.2 0.1098730133816912 0  0.22 0.1098730133816912 0  0.24 0.1098730133816912 0  0.26 0.1098730133816912 0  0.28 0.1098730133816912 0  0.3 0.1098730133816912 0  0.32 0.1098730133816912 0  0.34 0.1098730133816912 0  0.36 0.1098730133816912 0  0.38 0.1098730133816912 0  0.4 0.1098730133816912 0  0.42 0.1098730133816912 0  0.44 0.1098730133816912 0  0.46 0.1098730133816912 0  0.48 0.1098730133816912 0  0.5 0.1098730133816912 0  0.52 0.1098730133816912 0  0.54 0.1098730133816912 0  0.5600000000000001 0.1098730133816912 0  0.58 0.1098730133816912 0  0.6 0.1098730133816912 0  0.62 0.1098730133816912 0  0.64 0.1098730133816912 0  0.66 0.1098730133816912 0  0.68 0.1098730133816912 0  0.7 0.1098730133816912 0  0.72 0.1098730133816912 0  0.74 0.1098730133816912 0  0.76 0.1098730133816912 0  0.78 0.1098730133816912 0  0.8 0.1098730133816912 0  0.82 0.1098730133816912 0  0.84 0.1098730133816912 0  0.86 0.1098730133816912 0  0.88 0.1098730133816912 0  0.9 0.1098730133816912 0  0.92 0.1098730133816912 0  0.9399999999999999 0.1098730133816912 0  0.96 0.1098730133816912 0  0.98 0.1098730133816912 0  1 0.1098730133816912 0  0 0.1603283563168221 0  0.02 0.1603283563168221 0  0.04 0.1603283563168221 0  0.06 0.1603283563168221 0  0.08 0.1603283563168221 0  0.1 0.1603283563168221 0  0.12 0.1603283563168221 0  0.14 0.1603283563168221 0  0.16 0.1603283563168221 0  0.18 0.1603283563168221 0  0.2 0.1603283563168221 0  0.22 0.1603283563168221 0  0.24 0.1603283563168221 0  0.26 0.1603283563168221 0  0.28 0.1603283563168221 0  0.3 0.1603283563168221 0  0.32 0.1603283563168221 0  0.34 0.1603283563168221 0  0.36 0.1603283563168221 0  0.38 0.1603283563168221 0  0.4 0.1603283563168221 0  0.42 0.1603283563168221 0  0.44 0.1603283563168221 0  0.46 0.1603283563168221 0  0.48 0.1603283563168221 0  0.5 0.1603283563168221 0  0.52 0.1603283563168221 0  0.54 0.1603283563168221 0  0.5600000000000001 0.1603283563168221 0  0.58 0.1603283563168221 0 
[...]
<PointData  Vectors="u_paraw"> 
<DataArray  type="Float64"  Name="u_paraw"  NumberOfComponents="3" format="ascii">9.2379383949221813e-05 -1.9561607606182569e-04 0.0000000000000000e+00  9.2379383950443397e-05 -1.9561607606083907e-04 0.0000000000000000e+00  9.2379383946877686e-05 -1.9561607605873572e-04 0.0000000000000000e+00  9.2379383953447816e-05 -1.9561607605935366e-04 0.0000000000000000e+00  9.2379383941364098e-05 -1.9561607607054262e-04 0.0000000000000000e+00  9.2379383945160879e-05 -1.9561607606208598e-04 0.0000000000000000e+00  9.2379383949783064e-05 -1.9561607606259526e-04 0.0000000000000000e+00  9.2379383950740523e-05 -1.9561607605937548e-04 0.0000000000000000e+00  9.2379383948049750e-05 -1.9561607606757205e-04 0.0000000000000000e+00  9.2379383946266901e-05 -1.9561607607039067e-04 0.0000000000000000e+00  9.2379383942338051e-05 -1.9561607606290998e-04 0.0000000000000000e+00  9.2379383953893504e-05 -1.9561607606349545e-04 0.0000000000000000e+00  9.2379383945160879e-05 -1.9561607605860540e-04 0.0000000000000000e+00  9.2379383947554513e-05 -1.9561607606335420e-04 0.0000000000000000e+00  9.2379383949700529e-05 -1.9561607605970104e-04 0.0000000000000000e+00  9.2379383951004648e-05 -1.9561607605573226e-04 0.0000000000000000e+00  9.2379383946844672e-05 -1.9561607606738743e-04 0.0000000000000000e+00  9.2379383944517080e-05 -1.9561607606704109e-04 0.0000000000000000e+00  9.2379383949221799e-05 -1.9561607606060033e-04 0.0000000000000000e+00  9.2379383944500573e-05 -1.9561607606236758e-04 0.0000000000000000e+00  9.2379383949370376e-05 -1.9561607606378848e-04 0.0000000000000000e+00  9.2379383947901173e-05 -1.9561607606157611e-04 0.0000000000000000e+00  9.2379383948198312e-05 -1.9561607605933181e-04 0.0000000000000000e+00  9.2379383954669373e-05 -1.9561607605604728e-04 0.0000000000000000e+00  9.2379383947339909e-05 -1.9561607606699712e-04 0.0000000000000000e+00  9.2379383950096710e-05 -1.9561607606325662e-04 0.0000000000000000e+00  9.2379383948181805e-05 -1.9561607606512145e-04 0.0000000000000000e+00  9.2379383950195765e-05 -1.9561607606082801e-04 0.0000000000000000e+00  9.2379383950245286e-05 -1.9561607605899679e-04 0.0000000000000000e+00  9.2379383949139264e-05 -1.9561607606005823e-04 0.0000000000000000e+00  9.2379383947670062e-05 -1.9561607606194474e-04 0.0000000000000000e+00  9.2379383948726563e-05 -1.9561607605968960e-04 0.0000000000000000e+00  9.2379383948132285e-05 -1.9561607605949444e-04 0.0000000000000000e+00  9.2379383947504992e-05 -1.9561607606268200e-04 0.0000000000000000e+00  9.2379383956056027e-05 -1.9561607605996173e-04 0.0000000000000000e+00  9.2379383946068804e-05 -1.9561607606089306e-04 0.0000000000000000e+00  9.2379383949651008e-05 -1.9561607605945107e-04 0.0000000000000000e+00  9.2379383947422444e-05 -1.9561607606853669e-04 0.0000000000000000e+00  9.2379383945755158e-05 -1.9561607605944023e-04 0.0000000000000000e+00  9.2379383949518938e-05 -1.9561607606090391e-04 0.0000000000000000e+00  9.2379383947901173e-05 -1.9561607606015689e-04 0.0000000000000000e+00  9.2379383948198312e-05 -1.9561607606070875e-04 0.0000000000000000e+00  9.2379383953365254e-05 -1.9561607606625986e-04 0.0000000000000000e+00  9.2379383949733543e-05 -1.9561607606012328e-04 0.0000000000000000e+00  9.2379383946151352e-05 -1.9561607606189053e-04 0.0000000000000000e+00  9.2379383945210400e-05 -1.9561607606795122e-04 0.0000000000000000e+00  9.2379383958069987e-05 -1.9561607605689344e-04 0.0000000000000000e+00  9.2379383940588216e-05 -1.9561607606156527e-04 0.0000000000000000e+00  9.2379383946910700e-05 -1.9561607606225916e-04 0.0000000000000000e+00  9.2379383947802131e-05 -1.9561607605881139e-04 0.0000000000000000e+00  9.2379383949221799e-05 -1.6909361011184175e-15 0.0000000000000000e+00  -1.5444589662641658e-05 -3.8457008763356342e-04 0.0000000000000000e+00  -1.5444589673523186e-05 -3.8457008764206357e-04 0.0000000000000000e+00  -1.5444589665498460e-05 -3.8457008764121800e-04 0.0000000000000000e+00  -1.5444589669478729e-05 -3.8457008764657385e-04 0.0000000000000000e+00  -1.5444589675770113e-05 -3.8457008764169494e-04 0.0000000000000000e+00  -1.5444589671147871e-05 -3.8457008764462256e-04 0.0000000000000000e+00  -1.5444589670088606e-05 -3.8457008764895882e-04 0.0000000000000000e+00  -1.5444589670730586e-05 -3.8457008764568507e-04 0.0000000000000000e+00  -1.5444589670987376e-05 -3.8457008764191205e-04 0.0000000000000000e+00  -1.5444589668258971e-05 -3.8457008764310413e-04 0.0000000000000000e+00  -1.5444589672335530e-05 -3.8457008764794022e-04 0.0000000000000000e+00  -1.5444589673779982e-05 -3.8457008765850034e-04 0.0000000000000000e+00  -1.5444589673234300e-05 -3.8457008765414131e-04 0.0000000000000000e+00  -1.5444589670794784e-05 -3.8457008764895882e-04 0.0000000000000000e+00  -1.5444589673234300e-05 -3.8457008764980553e-04 0.0000000000000000e+00  -1.5444589674646653e-05 -3.8457008765114891e-04 0.0000000000000000e+00  -1.5444589673844181e-05 -3.8457008765162596e-04 0.0000000000000000e+00  -1.5444589673587387e-05 -3.8457008765206067e-04 0.0000000000000000e+00  -1.5444589667970078e-05 -3.8457008764483885e-04 0.0000000000000000e+00  -1.5444589671051574e-05 -3.8457008765730718e-04 0.0000000000000000e+00  -1.5444589670120705e-05 -3.8457008764347379e-04 0.0000000000000000e+00  -1.5444589676187399e-05 -3.8457008765281858e-04 0.0000000000000000e+00  -1.5444589676444189e-05 -3.8457008766010442e-04 0.0000000000000000e+00  -1.5444589670088606e-05 -3.8457008764961037e-04 0.0000000000000000e+00  -1.5444589675577518e-05 -3.8457008765466173e-04 0.0000000000000000e+00  -1.5444589672560224e-05 -3.8457008765665666e-04 0.0000000000000000e+00  -1.5444589669607122e-05 -3.8457008765073691e-04 0.0000000000000000e+00  -1.5444589674550355e-05 -3.8457008765691687e-04 0.0000000000000000e+00  -1.5444589672175034e-05 -3.8457008765429521e-04 0.0000000000000000e+00  -1.5444589666172539e-05 -3.8457008764141278e-04 0.0000000000000000e+00  -1.5444589674710848e-05 -3.8457008765570256e-04 0.0000000000000000e+00  -1.5444589672303431e-05 -3.8457008764765778e-04 0.0000000000000000e+00  -1.5444589668098475e-05 -3.8457008764340771e-04 0.0000000000000000e+00  -1.5444589675577518e-05 -3.8457008766084168e-04 0.0000000000000000e+00  -1.5444589669382431e-05 -3.8457008764876578e-04 0.0000000000000000e+00  -1.5444589677214565e-05 -3.8457008766123199e-04 0.0000000000000000e+00  -1.5444589668483661e-05 -3.8457008765327395e-04 0.0000000000000000e+00  -1.5444589677278760e-05 -3.8457008765461836e-04 0.0000000000000000e+00  -1.5444589669446629e-05 -3.8457008765401121e-04 0.0000000000000000e+00  -1.5444589668451562e-05 -3.8457008764889377e-04 0.0000000000000000e+00  -1.5444589676733081e-05 -3.8457008765262554e-04 0.0000000000000000e+00  -1.5444589670762685e-05 -3.8457008765173438e-04 0.0000000000000000e+00  -1.5444589673940475e-05 -3.8457008765763244e-04 0.0000000000000000e+00  -1.5444589668579959e-05 -3.8457008764570622e-04 0.0000000000000000e+00  -1.5444589675609617e-05 -3.8457008765670003e-04 0.0000000000000000e+00  -1.5444589669318233e-05 -3.8457008764696389e-04 0.0000000000000000e+00  -1.5444589673491090e-05 -3.8457008765401332e-04 0.0000000000000000e+00  -1.5444589670537991e-05 -3.8457008764696389e-04 0.0000000000000000e+00  -1.5444589679814577e-05 -3.8457008765375100e-04 0.0000000000000000e+00  -1.5444589670891078e-05 -3.8457008764301740e-04 0.0000000000000000e+00  -1.5444589662641662e-05 -7.5454178019829102e-04 0.0000000000000000e+00  -1.0738216211076706e-05 -2.2343210362659773e-04 0.0000000000000000e+00  -1.0738216210654196e-05 -2.2343210362377880e-04 0.0000000000000000e+00  -1.0738216208602001e-05 -2.2343210361909507e-04 0.0000000000000000e+00  -1.0738216215724322e-05 -2.2343210362304149e-04 0.0000000000000000e+00  -1.0738216209869533e-05 -2.2343210361970215e-04 0.0000000000000000e+00  -1.0738216215543246e-05 -2.2343210362529682e-04 0.0000000000000000e+00  -1.0738216206066938e-05 -2.2343210361857444e-04 0.0000000000000000e+00  -1.0738216211137064e-05 -2.2343210362056970e-04 0.0000000000000000e+00  -1.0738216214758584e-05 -2.2343210362221768e-04 0.0000000000000000e+00  -1.0738216207998416e-05 -2.2343210361987548e-04 0.0000000000000000e+00  -1.0738216213973921e-05 -2.2343210362802901e-04 0.0000000000000000e+00  -1.0738216215845039e-05 -2.2343210362468966e-04 0.0000000000000000e+00  -1.0738216214034281e-05 -2.2343210362824552e-04 0.0000000000000000e+00  -1.0738216211378499e-05 -2.2343210361957191e-04 0.0000000000000000e+00  -1.0738216209447023e-05 -2.2343210362568743e-04 0.0000000000000000e+00  -1.0738216205825503e-05 -2.2343210361853107e-04 0.0000000000000000e+00  -1.0738216217957592e-05 -2.2343210362061274e-04 0.0000000000000000e+00  -1.0738216210473119e-05 -2.2343210362377923e-04 0.0000000000000000e+00  -1.0738216213732486e-05 -2.2343210362789858e-04 0.0000000000000000e+00  -1.0738216212766749e-05 -2.2343210362447250e-04 0.0000000000000000e+00  -1.0738216208964153e-05 -2.2343210362785583e-04 0.0000000000000000e+00  -1.0738216214094639e-05 -2.2343210362104642e-04 0.0000000000000000e+00  -1.0738216210171326e-05 -2.2343210361922496e-04 0.0000000000000000e+00  -1.0738216212102803e-05 -2.2343210362490680e-04 0.0000000000000000e+00  -1.0738216214758584e-05 -2.2343210363032719e-04 0.0000000000000000e+00  -1.0738216212102803e-05 -2.2343210362516639e-04 0.0000000000000000e+00  -1.0738216214396431e-05 -2.2343210363704924e-04 0.0000000000000000e+00  -1.0738216209205588e-05 -2.2343210362178368e-04 0.0000000000000000e+00  -1.0738216212827106e-05 -2.2343210362746612e-04 0.0000000000000000e+00  -1.0738216212344238e-05 -2.2343210362893941e-04 0.0000000000000000e+00  -1.0738216214939659e-05 -2.2343210363357980e-04 0.0000000000000000e+00  -1.0738216205463351e-05 -2.2343210361978875e-04 0.0000000000000000e+00  -1.0738216206308373e-05 -2.2343210361779381e-04 0.0000000000000000e+00  -1.0738216220854809e-05 -2.2343210363271244e-04 0.0000000000000000e+00  -1.0738216219768352e-05 -2.2343210364021633e-04 0.0000000000000000e+00  -1.0738216212163161e-05 -2.2343210362724806e-04 0.0000000000000000e+00  -1.0738216212585673e-05 -2.2343210363331959e-04 0.0000000000000000e+00  -1.0738216209567741e-05 -2.2343210362698785e-04 0.0000000000000000e+00  -1.0738216208602001e-05 -2.2343210362087295e-04 0.0000000000000000e+00  -1.0738216210412761e-05 -2.2343210363006698e-04 0.0000000000000000e+00  -1.0738216214456791e-05 -2.2343210363115240e-04 0.0000000000000000e+00  -1.0738216211740651e-05 -2.2343210362503628e-04 0.0000000000000000e+00  -1.0738216216629702e-05 -2.2343210363089098e-04 0.0000000000000000e+00  -1.0738216205523710e-05 -2.2343210362438576e-04 0.0000000000000000e+00  -1.0738216213128901e-05 -2.2343210362455924e-04 0.0000000000000000e+00  -1.0738216210895631e-05 -2.2343210362239083e-04 0.0000000000000000e+00  -1.0738216213430694e-05 -2.2343210362967789e-04 0.0000000000000000e+00  -1.0738216211861369e-05 -2.2343210362043927e-04 0.0000000000000000e+00  -1.0738216215120736e-05 -2.2343210362577354e-04 0.0000000000000000e+00  -1.0738216206006579e-05 -2.2343210361033450e-04 0.0000000000000000e+00  -1.0738216211076706e-05 5.4655516866566228e-05 0.0000000000000000e+00  1.5607720179165927e-04 -5.0008981820007931e-04 0.0000000000000000e+00  1.5607720179219999e-04 -5.0008981821161522e-04 0.0000000000000000e+00  1.5607720179695809e-04 -5.0008981820146719e-04 0.0000000000000000e+00  1.5607720179836392e-04 -5.0008981820675788e-04 0.0000000000000000e+00  1.5607720179295695e-04 -5.0008981820927323e-04 0.0000000000000000e+00  1.5607720179598483e-04 -5.0008981820753883e-04 0.0000000000000000e+00  1.5607720179209184e-04 -5.0008981821491076e-04 0.0000000000000000e+00  1.5607720179414646e-04 -5.0008981820658474e-04 0.0000000000000000e+00  1.5607720179241624e-04 -5.0008981821491141e-04 0.0000000000000000e+00  1.5607720179241626e-04 -5.0008981820198707e-04 0.0000000000000000e+00  1.5607720179393019e-04 -5.0008981820268161e-04 0.0000000000000000e+00  1.5607720179684994e-04 -5.0008981820641126e-04 0.0000000000000000e+00  1.5607720179511975e-04 -5.0008981820042582e-04 0.0000000000000000e+00  1.5607720179274068e-04 -5.0008981820944638e-04 0.0000000000000000e+00  1.5607720179209182e-04 -5.0008981821048862e-04 0.0000000000000000e+00  1.5607720178938836e-04 -5.0008981821751284e-04 0.0000000000000000e+00  1.5607720179079416e-04 -5.0008981820441568e-04 0.0000000000000000e+00  1.5607720179338950e-04 -5.0008981820250889e-04 0.0000000000000000e+00  1.5607720179803950e-04 -5.0008981819912477e-04 0.0000000000000000e+00  1.5607720179014535e-04 -5.0008981821534444e-04 0.0000000000000000e+00  1.5607720179165927e-04 -5.0008981821170293e-04 0.0000000000000000e+00  1.5607720178819882e-04 -5.0008981822167618e-04 0.0000000000000000e+00  1.5607720179122673e-04 -5.0008981820632388e-04 0.0000000000000000e+00  1.5607720178982090e-04 -5.0008981820693244e-04 0.0000000000000000e+00  1.5607720179511975e-04 -5.0008981821196173e-04 0.0000000000000000e+00  1.5607720178906394e-04 -5.0008981820935964e-04 0.0000000000000000e+00  1.5607720178971278e-04 -5.0008981821152805e-04 0.0000000000000000e+00  1.5607720180009415e-04 -5.0008981820883923e-04 0.0000000000000000e+00  1.5607720179328137e-04 -5.0008981821794934e-04 0.0000000000000000e+00  1.5607720178733371e-04 -5.0008981821413013e-04 0.0000000000000000e+00  1.5607720179576856e-04 -5.0008981820597693e-04 0.0000000000000000e+00  1.5607720179382207e-04 -5.0008981822028840e-04 0.0000000000000000e+00  1.5607720179274068e-04 -5.0008981821248214e-04 0.0000000000000000e+00  1.5607720178084536e-04 -5.0008981821994146e-04 0.0000000000000000e+00  1.5607720179219999e-04 -5.0008981820788795e-04 0.0000000000000000e+00  1.5607720179219999e-04 -5.0008981821725263e-04 0.0000000000000000e+00  1.5607720179447091e-04 -5.0008981821031374e-04 0.0000000000000000e+00  1.5607720179425464e-04 -5.0008981821256888e-04 0.0000000000000000e+00  1.5607720179133488e-04 -5.0008981821404340e-04 0.0000000000000000e+00  1.5607720179555229e-04 -5.0008981821239541e-04 0.0000000000000000e+00  1.5607720179544417e-04 -5.0008981820702058e-04 0.0000000000000000e+00  1.5607720179014535e-04 -5.0008981822132923e-04 0.0000000000000000e+00  1.5607720179371392e-04 -5.0008981821057395e-04 0.0000000000000000e+00  1.5607720179393022e-04 -5.0008981821048721e-04 0.0000000000000000e+00  1.5607720179501160e-04 -5.0008981821716590e-04 0.0000000000000000e+00  1.5607720179263253e-04 -5.0008981821950777e-04 0.0000000000000000e+00  1.5607720179641740e-04 -5.0008981820858184e-04 0.0000000000000000e+00  1.5607720179836392e-04 -5.0008981821048721e-04 0.0000000000000000e+00  1.5607720179046977e-04 -5.0008981820788513e-04 0.0000000000000000e+00  1.5607720179317323e-04 -5.0008981821144131e-04 0.0000000000000000e+00  1.5607720179165927e-04 -4.4301723245339619e-04 0.0000000000000000e+00  -3.9453741378002026e-04 -1.8281412325698088e-03 0.0000000000000000e+00  -3.9453741378019710e-04 -1.8281412325705027e-03 0.0000000000000000e+00  -3.9453741377710246e-04 -1.8281412325692021e-03 0.0000000000000000e+00  -3.9453741378231921e-04 -1.8281412325702423e-03 0.0000000000000000e+00  -3.9453741378338026e-04 -1.8281412325631299e-03 0.0000000000000000e+00  -3.9453741378231921e-04 -1.8281412325662537e-03 0.0000000000000000e+00  -3.9453741378974653e-04 -1.8281412325689399e-03 0.0000000000000000e+00  -3.9453741378391076e-04 -1.8281412325710242e-03 0.0000000000000000e+00  -3.9453741378346868e-04 -1.8281412325695497e-03 0.0000000000000000e+00  -3.9453741378815493e-04 -1.8281412325719757e-03 0.0000000000000000e+00  -3.9453741379001178e-04 -1.8281412325710242e-03 0.0000000000000000e+00  -3.9453741378346868e-04 -1.8281412325705905e-03 0.0000000000000000e+00  -3.9453741379151492e-04 -1.8281412325761390e-03 0.0000000000000000e+00  -3.9453741378762442e-04 -1.8281412325785677e-03 0.0000000000000000e+00  -3.9453741378346868e-04 -1.8281412325698990e-03 0.0000000000000000e+00  -3.9453741378010868e-04 -1.8281412325692869e-03 0.0000000000000000e+00  -3.9453741378452973e-04 -1.8281412325671185e-03 0.0000000000000000e+00  -3.9453741378488340e-04 -1.8281412325678174e-03 0.0000000000000000e+00  -3.9453741378691704e-04 -1.8281412325754452e-03 0.0000000000000000e+00  -3.9453741378877390e-04 -1.8281412325782207e-03 0.0000000000000000e+00  -3.9453741378099290e-04 -1.8281412325724144e-03 0.0000000000000000e+00  -3.9453741378612129e-04 -1.8281412325739706e-03 0.0000000000000000e+00  -3.9453741378682862e-04 -1.8281412325705879e-03 0.0000000000000000e+00  -3.9453741379124967e-04 -1.8281412325793533e-03 0.0000000000000000e+00  -3.9453741378612129e-04 -1.8281412325697206e-03 0.0000000000000000e+00  -3.9453741379036545e-04 -1.8281412325764860e-03 0.0000000000000000e+00  -3.9453741378143499e-04 -1.8281412325748380e-03 0.0000000000000000e+00  -3.9453741377931288e-04 -1.8281412325735370e-03 0.0000000000000000e+00  -3.9453741377869396e-04 -1.8281412325669552e-03 0.0000000000000000e+00  -3.9453741378532548e-04 -1.8281412325723227e-03 0.0000000000000000e+00  -3.9453741378762442e-04 -1.8281412325881954e-03 0.0000000000000000e+00  -3.9453741377391924e-04 -1.8281412325616541e-03 0.0000000000000000e+00  -3.9453741378550232e-04 -1.8281412325824708e-03 0.0000000000000000e+00  -3.9453741379018862e-04 -1.8281412325773534e-03 0.0000000000000000e+00  -3.9453741378532548e-04 -1.8281412325795319e-03 0.0000000000000000e+00  -3.9453741378656337e-04 -1.8281412325752717e-03 0.0000000000000000e+00  -3.9453741377878238e-04 -1.8281412325728431e-03 0.0000000000000000e+00  -3.9453741378541390e-04 -1.8281412325887158e-03 0.0000000000000000e+00  -3.9453741378753601e-04 -1.8281412325800422e-03 0.0000000000000000e+00  -3.9453741378815493e-04 -1.8281412325764860e-03 0.0000000000000000e+00  -3.9453741377780974e-04 -1.8281412325813534e-03 0.0000000000000000e+00  -3.9453741378576757e-04 -1.8281412325839453e-03 0.0000000000000000e+00  -3.9453741378382234e-04 -1.8281412325766595e-03 0.0000000000000000e+00  -3.9453741378125815e-04 -1.8281412325770931e-03 0.0000000000000000e+00  -3.9453741378019710e-04 -1.8281412325767462e-03 0.0000000000000000e+00  -3.9453741378276129e-04 -1.8281412325662511e-03 0.0000000000000000e+00  -3.9453741378002026e-04 -1.8281412325758890e-03 0.0000000000000000e+00  -3.9453741378028551e-04 -1.8281412325811697e-03 0.0000000000000000e+00  -3.9453741378638654e-04 -1.8281412325804759e-03 0.0000000000000000e+00  -3.9453741377595293e-04 -1.8281412325676389e-03 0.0000000000000000e+00  -3.9453741378002026e-04 -1.3055624992868828e-03 0.0000000000000000e+00  6.1005537215116972e-05 -2.0414713348387153e-04 0.0000000000000000e+00  6.1005537195050205e-05 -2.0414713352359670e-04 0.0000000000000000e+00  6.1005537197872092e-05 -2.0414713351232105e-04 0.0000000000000000e+00  6.1005537191914774e-05 -2.0414713352168845e-04 0.0000000000000000e+00  6.1005537197454038e-05 -2.0414713350121872e-04 0.0000000000000000e+00  6.1005537199126264e-05 -2.0414713350104541e-04 0.0000000000000000e+00  6.1005537194736654e-05 -2.0414713352134134e-04 0.0000000000000000e+00  6.1005537202888784e-05 -2.0414713351214764e-04 0.0000000000000000e+00  6.1005537198394664e-05 -2.0414713352220903e-04 0.0000000000000000e+00  6.1005537204351982e-05 -2.0414713351960662e-04 0.0000000000000000e+00  6.1005537204038445e-05 -2.0414713351075986e-04 0.0000000000000000e+00  6.1005537207382904e-05 -2.0414713350330055e-04 0.0000000000000000e+00  6.1005537199544318e-05 -2.0414713351405551e-04 0.0000000000000000e+00  6.1005537202261688e-05 -2.0414713349740216e-04 0.0000000000000000e+00  6.1005537198812712e-05 -2.0414713349861704e-04 0.0000000000000000e+00  6.1005537200275918e-05 -2.0414713350572883e-04 0.0000000000000000e+00  6.1005537201739116e-05 -2.0414713350902481e-04 0.0000000000000000e+00  6.1005537202993294e-05 -2.0414713349688231e-04 0.0000000000000000e+00  6.1005537193168939e-05 -2.0414713351960662e-04 0.0000000000000000e+00  6.1005537197454031e-05 -2.0414713350382064e-04 0.0000000000000000e+00  6.1005537198290140e-05 -2.0414713350520899e-04 0.0000000000000000e+00  6.1005537199962373e-05 -2.0414713350035119e-04 0.0000000000000000e+00  6.1005537201948150e-05 -2.0414713349896341e-04 0.0000000000000000e+