<?xml version="1.0"?>
<VTKFile type="UnstructuredGrid"  version="0.1"  >
<UnstructuredGrid>
<Piece  NumberOfPoints="2601" NumberOfCells="5000">
<Points>
<DataArray  type="Float64"  NumberOfComponents="3"  format="ascii">0 0 0  0.02 0 0  0.04 0 0  0.06 0 0  0.08 0 0  0.1 0 0  0.12 0 0  0.14 0 0  0.16 0 0  0.18 0 0  0.2 0 0  0.22 0 0  0.24 0 0  0.26 0 0  0.28 0 0  0.3 0 0  0.32 0 0  0.34 0 0  0.36 0 0  0.38 0 0  0.4 0 0  0.42 0 0  0.44 0 0  0.46 0 0  0.48 0 0  0.5 0 0  0.52 0 0  0.54 0 0  0.5600000000000001 0 0  0.58 0 0  0.6 0 0  0.62 0 0  0.64 0 0  0.66 0 0  0.68 0 0  0.7 0 0  0.72 0 0  0.74 0 0  0.76 0 0  0.78 0 0  0.8 0 0  0.82 0 0  0.84 0 0  0.86 0 0  0.88 0 0  0.9 0 0  0.92 0 0  0.9399999999999999 0 0  0.96 0 0  0.98 0 0  1 0 0  0 0.01313563088723984 0  0.02 0.01313563088723984 0  0.04 0.01313563088723984 0  0.06 0.01313563088723984 0  0.08 0.01313563088723984 0  0.1 0.01313563088723984 0  0.12 0.01313563088723984 0  0.14 0.01313563088723984 0  0.16 0.01313563088723984 0  0.18 0.01313563088723984 0  0.2 0.01313563088723984 0  0.22 0.01313563088723984 0  0.24 0.01313563088723984 0  0.26 0.01313563088723984 0  0.28 0.01313563088723984 0  0.3 0.01313563088723984 0  0.32 0.01313563088723984 0  0.34 0.01313563088723984 0  0.36 0.01313563088723984 0  0.38 0.01313563088723984 0  0.4 0.01313563088723984 0  0.42 0.01313563088723984 0  0.44 0.01313563088723984 0  0.46 0.01313563088723984 0  0.48 0.01313563088723984 0  0.5 0.01313563088723984 0  0.52 0.01313563088723984 0  0.54 0.01313563088723984 0  0.5600000000000001 0.01313563088723984 0  0.58 0.01313563088723984 0  0.6 0.01313563088723984 0  0.62 0.01313563088723984 0  0.64 0.01313563088723984 0  0.66 0.01313563088723984 0  0.68 0.01313563088723984 0  0.7 0.01313563088723984 0  0.72 0.01313563088723984 0  0.74 0.01313563088723984 0  0.76 0.01313563088723984 0  0.78 0.01313563088723984 0  0.8 0.01313563088723984 0  0.82 0.01313563088723984 0  0.84 0.01313563088723984 0  0.86 0.01313563088723984 0  0.88 0.01313563088723984 0  0.9 0.01313563088723984 0  0.92 0.01313563088723984 0  0.9399999999999999 0.01313563088723984 0  0.96 0.01313563088723984 0  0.98 0.01313563088723984 0  1 0.01313563088723984 0  0 0.02664639863733726 0  0.02 0.02664639863733726 0  0.04 0.02664639863733726 0  0.06 0.02664639863733726 0  0.08 0.02664639863733726 0  0.1 0.02664639863733726 0  0.12 0.02664639863733726 0  0.14 0.02664639863733726 0  0.16 0.02664639863733726 0  0.18 0.02664639863733726 0  0.2 0.02664639863733726 0  0.22 0.02664639863733726 0  0.24 0.02664639863733726 0  0.26 0.02664639863733726 0  0.28 0.02664639863733726 0  0.3 0.02664639863733726 0  0.32 0.02664639863733726 0  0.34 0.02664639863733726 0  0.36 0.02664639863733726 0  0.38 0.02664639863733726 0  0.4 0.02664639863733726 0  0.42 0.02664639863733726 0  0.44 0.02664639863733726 0  0.46 0.02664639863733726 0  0.48 0.02664639863733726 0  0.5 0.02664639863733726 0  0.52 0.02664639863733726 0  0.54 0.02664639863733726 0  0.5600000000000001 0.02664639863733726 0  0.58 0.02664639863733726 0  0.6 0.02664639863733726 0  0.62 0.02664639863733726 0  0.64 0.02664639863733726 0  0.66 0.02664639863733726 0  0.68 0.02664639863733726 0  0.7 0.02664639863733726 0  0.72 0.02664639863733726 0  0.74 0.02664639863733726 0  0.76 0.02664639863733726 0  0.78 0.02664639863733726 0  0.8 0.02664639863733726 0  0.82 0.02664639863733726 0  0.84 0.02664639863733726 0  0.86 0.02664639863733726 0  0.88 0.02664639863733726 0  0.9 0.02664639863733726 0  0.92 0.02664639863733726 0  0.9399999999999999 0.02664639863733726 0  0.96 0.02664639863733726 0  0.98 0.02664639863733726 0  1 0.02664639863733726 0  0 0.04101652939099896 0  0.02 0.04101652939099896 0  0.04 0.04101652939099896 0  0.06 0.04101652939099896 0  0.08 0.04101652939099896 0  0.1 0.04101652939099896 0  0.12 0.04101652939099896 0  0.14 0.04101652939099896 0  0.16 0.04101652939099896 0  0.18 0.04101652939099896 0  0.2 0.04101652939099896 0  0.22 0.04101652939099896 0  0.24 0.04101652939099896 0  0.26 0.04101652939099896 0  0.28 0.04101652939099896 0  0.3 0.04101652939099896 0  0.32 0.04101652939099896 0  0.34 0.04101652939099896 0  0.36 0.04101652939099896 0  0.38 0.04101652939099896 0  0.4 0.04101652939099896 0  0.42 0.04101652939099896 0  0.44 0.04101652939099896 0  0.46 0.04101652939099896 0  0.48 0.04101652939099896 0  0.5 0.04101652939099896 0  0.52 0.04101652939099896 0  0.54 0.04101652939099896 0  0.5600000000000001 0.04101652939099896 0  0.58 0.04101652939099896 0  0.6 0.04101652939099896 0  0.62 0.04101652939099896 0  0.64 0.04101652939099896 0  0.66 0.04101652939099896 0  0.68 0.04101652939099896 0  0.7 0.04101652939099896 0  0.72 0.04101652939099896 0  0.74 0.04101652939099896 0  0.76 0.04101652939099896 0  0.78 0.04101652939099896 0  0.8 0.04101652939099896 0  0.82 0.04101652939099896 0  0.84 0.04101652939099896 0  0.86 0.04101652939099896 0  0.88 0.04101652939099896 0  0.9 0.04101652939099896 0  0.92 0.04101652939099896 0  0.9399999999999999 0.04101652939099896 0  0.96 0.04101652939099896 0  0.98 0.04101652939099896 0  1 0.04101652939099896 0  0 0.05705811164099547 0  0.02 0.05705811164099547 0  0.04 0.05705811164099547 0  0.06 0.05705811164099547 0  0.08 0.05705811164099547 0  0.1 0.05705811164099547 0  0.12 0.05705811164099547 0  0.14 0.05705811164099547 0  0.16 0.05705811164099547 0  0.18 0.05705811164099547 0  0.2 0.05705811164099547 0  0.22 0.05705811164099547 0  0.24 0.05705811164099547 0  0.26 0.05705811164099547 0  0.28 0.05705811164099547 0  0.3 0.05705811164099547 0  0.32 0.05705811164099547 0  0.34 0.05705811164099547 0  0.36 0.05705811164099547 0  0.38 0.05705811164099547 0  0.4 0.05705811164099547 0  0.42 0.05705811164099547 0  0.44 0.05705811164099547 0  0.46 0.05705811164099547 0  0.48 0.05705811164099547 0  0.5 0.05705811164099547 0  0.52 0.05705811164099547 0  0.54 0.05705811164099547 0  0.5600000000000001 0.05705811164099547 0  0.58 0.05705811164099547 0  0.6 0.05705811164099547 0  0.62 0.05705811164099547 0  0.64 0.05705811164099547 0  0.66 0.05705811164099547 0  0.68 0.05705811164099547 0  0.7 0.05705811164099547 0  0.72 0.05705811164099547 0  0.74 0.05705811164099547 0  0.76 0.05705811164099547 0  0.78 0.05705811164099547 0  0.8 0.05705811164099547 0  0.82 0.05705811164099547 0  0.84 0.05705811164099547 0  0.86 0.05705811164099547 0  0.88 0.05705811164099547 0  0.9 0.05705811164099547 0  0.92 0.05705811164099547 0  0.9399999999999999 0.05705811164099547 0  0.96 0.05705811164099547 0  0.98 0.05705811164099547 0  1 0.05705811164099547 0  0 0.07667714377545 0  0.02 0.07667714377545 0  0.04 0.07667714377545 0  0.06 0.07667714377545 0  0.08 0.07667714377545 0  0.1 0.07667714377545 0  0.12 0.07667714377545 0  0.14 0.07667714377545 0  0.16 0.07667714377545 0  0.18 0.07667714377545 0  0.2 0.07667714377545 0  0.22 0.07667714377545 0  0.24 0.07667714377545 0  0.26 0.07667714377545 0  0.28 0.07667714377545 0  0.3 0.07667714377545 0  0.32 0.07667714377545 0  0.34 0.07667714377545 0  0.36 0.07667714377545 0  0.38 0.07667714377545 0  0.4 0.07667714377545 0  0.42 0.07667714377545 0  0.44 0.07667714377545 0  0.46 0.07667714377545 0  0.48 0.07667714377545 0  0.5 0.07667714377545 0  0.52 0.07667714377545 0  0.54 0.07667714377545 0  0.5600000000000001 0.07667714377545 0  0.58 0.07667714377545 0  0.6 0.07667714377545 0  0.62 0.07667714377545 0  0.64 0.07667714377545 0  0.66 0.07667714377545 0  0.68 0.07667714377545 0  0.7 0.07667714377545 0  0.72 0.07667714377545 0  0.74 0.07667714377545 0  0.76 0.07667714377545 0  0.78 0.07667714377545 0  0.8 0.07667714377545 0  0.82 0.07667714377545 0  0.84 0.07667714377545 0  0.86 0.07667714377545 0  0.88 0.07667714377545 0  0.9 0.07667714377545 0  0.92 0.07667714377545 0  0.9399999999999999 0.07667714377545 0  0.96 0.07667714377545 0  0.98 0.07667714377545 0  1 0.07667714377545 0  0 0.1098730133816912 0  0.02 0.1098730133816912 0  0.04 0.1098730133816912 0  0.06 0.1098730133816912 0  0.08 0.1098730133816912 0  0.1 0.1098730133816912 0  0.12 0.1098730133816912 0  0.14 0.1098730133816912 0  0.16 0.1098730133816912 0  0.18 0.1098730133816912 0  0.2 0.1098730133816912 0  0.22 0.1098730133816912 0  0.24 0.1098730133816912 0  0.26 0.1098730133816912 0  0.28 0.1098730133816912 0  0.3 0.1098730133816912 0  0.32 0.1098730133816912 0  0.34 0.1098730133816912 0  0.36 0.1098730133816912 0  0.38 0.1098730133816912 0  0.4 0.1098730133816912 0  0.42 0.1098730133816912 0  0.44 0.1098730133816912 0  0.46 0.1098730133816912 0  0.48 0.1098730133816912 0  0.5 0.1098730133816912 0  0.52 0.1098730133816912 0  0.54 0.1098730133816912 0  0.5600000000000001 0.1098730133816912 0  0.58 0.1098730133816912 0  0.6 0.1098730133816912 0  0.62 0.1098730133816912 0  0.64 0.1098730133816912 0  0.66 0.1098730133816912 0  0.68 0.1098730133816912 0  0.7 0.1098730133816912 0  0.72 0.1098730133816912 0  0.74 0.1098730133816912 0  0.76 0.1098730133816912 0  0.78 0.1098730133816912 0  0.8 0.1098730133816912 0  0.82 0.1098730133816912 0  0.84 0.1098730133816912 0  0.86 0.1098730133816912 0  0.88 0.1098730133816912 0  0.9 0.1098730133816912 0  0.92 0.1098730133816912 0  0.9399999999999999 0.1098730133816912 0  0.96 0.1098730133816912 0  0.98 0.1098730133816912 0  1 0.1098730133816912 0  0 0.1603283563168221 0  0.02 0.1603283563168221 0  0.04 0.1603283563168221 0  0.06 0.1603283563168221 0  0.08 0.1603283563168221 0  0.1 0.1603283563168221 0  0.12 0.1603283563168221 0  0.14 0.1603283563168221 0  0.16 0.1603283563168221 0  0.18 0.1603283563168221 0  0.2 0.1603283563168221 0  0.22 0.1603283563168221 0  0.24 0.1603283563168221 0  0.26 0.1603283563168221 0  0.28 0.1603283563168221 0  0.3 0.1603283563168221 0  0.32 0.1603283563168221 0  0.34 0.1603283563168221 0  0.36 0.1603283563168221 0  0.38 0.1603283563168221 0  0.4 0.1603283563168221 0  0.42 0.1603283563168221 0  0.44 0.1603283563168221 0  0.46 0.1603283563168221 0  0.48 0.1603283563168221 0  0.5 0.1603283563168221 0  0.52 0.1603283563168221 0  0.54 0.1603283563168221 0  0.5600000000000001 0.1603283563168221 0  0.58 0.1603283563168221 0 
[...]
<PointData  Vectors="u_paraw"> 
<DataArray  type="Float64"  Name="u_paraw"  NumberOfComponents="3" format="ascii">-2.4977521610560965e-06 4.2819060625792077e-04 0.0000000000000000e+00  -2.4977521603792765e-06 4.2819060624762085e-04 0.0000000000000000e+00  -2.4977521593062687e-06 4.2819060625660888e-04 0.0000000000000000e+00  -2.4977521595043630e-06 4.2819060625723767e-04 0.0000000000000000e+00  -2.4977521539082171e-06 4.2819060626387299e-04 0.0000000000000000e+00  -2.4977521710103027e-06 4.2819060625837630e-04 0.0000000000000000e+00  -2.4977521627068765e-06 4.2819060625652171e-04 0.0000000000000000e+00  -2.4977521607259400e-06 4.2819060625787756e-04 0.0000000000000000e+00  -2.4977521576059649e-06 4.2819060625669578e-04 0.0000000000000000e+00  -2.4977521691449206e-06 4.2819060624981050e-04 0.0000000000000000e+00  -2.4977521606764165e-06 4.2819060625380096e-04 0.0000000000000000e+00  -2.4977521643906729e-06 4.2819060625592600e-04 0.0000000000000000e+00  -2.4977521514650615e-06 4.2819060626072842e-04 0.0000000000000000e+00  -2.4977521584808783e-06 4.2819060626505439e-04 0.0000000000000000e+00  -2.4977521540237710e-06 4.2819060626155371e-04 0.0000000000000000e+00  -2.4977521582662770e-06 4.2819060625204396e-04 0.0000000000000000e+00  -2.4977521540402789e-06 4.2819060625989358e-04 0.0000000000000000e+00  -2.4977521588935735e-06 4.2819060625178505e-04 0.0000000000000000e+00  -2.4977521555755049e-06 4.2819060625782276e-04 0.0000000000000000e+00  -2.4977521575069179e-06 4.2819060624902988e-04 0.0000000000000000e+00  -2.4977521661735155e-06 4.2819060624976844e-04 0.0000000000000000e+00  -2.4977521517787098e-06 4.2819060624654705e-04 0.0000000000000000e+00  -2.4977521579526288e-06 4.2819060626559649e-04 0.0000000000000000e+00  -2.4977521656287581e-06 4.2819060624559426e-04 0.0000000000000000e+00  -2.4977521604948309e-06 4.2819060625789865e-04 0.0000000000000000e+00  -2.4977521544694819e-06 4.2819060626711437e-04 0.0000000000000000e+00  -2.4977521616338691e-06 4.2819060624917082e-04 0.0000000000000000e+00  -2.4977521668998590e-06 4.2819060624718673e-04 0.0000000000000000e+00  -2.4977521550802706e-06 4.2819060626327868e-04 0.0000000000000000e+00  -2.4977521689963502e-06 4.2819060624841188e-04 0.0000000000000000e+00  -2.4977521559056610e-06 4.2819060625809381e-04 0.0000000000000000e+00  -2.4977521569951762e-06 4.2819060625450510e-04 0.0000000000000000e+00  -2.4977521599335652e-06 4.2819060625538330e-04 0.0000000000000000e+00  -2.4977521538752010e-06 4.2819060625196807e-04 0.0000000000000000e+00  -2.4977521589430970e-06 4.2819060625189456e-04 0.0000000000000000e+00  -2.4977521611056195e-06 4.2819060624711084e-04 0.0000000000000000e+00  -2.4977521610560961e-06 4.2819060626022969e-04 0.0000000000000000e+00  -2.4977521583983396e-06 4.2819060625312816e-04 0.0000000000000000e+00  -2.4977521607589556e-06 4.2819060625151270e-04 0.0000000000000000e+00  -2.4977521581672301e-06 4.2819060625839738e-04 0.0000000000000000e+00  -2.4977521695246002e-06 4.2819060625493032e-04 0.0000000000000000e+00  -2.4977521539247245e-06 4.2819060627009593e-04 0.0000000000000000e+00  -2.4977521588605579e-06 4.2819060625424489e-04 0.0000000000000000e+00  -2.4977521609240335e-06 4.2819060625732402e-04 0.0000000000000000e+00  -2.4977521621951347e-06 4.2819060625745413e-04 0.0000000000000000e+00  -2.4977521618154552e-06 4.2819060625949243e-04 0.0000000000000000e+00  -2.4977521648363834e-06 4.2819060625276192e-04 0.0000000000000000e+00  -2.4977521570612075e-06 4.2819060625668435e-04 0.0000000000000000e+00  -2.4977521532313967e-06 4.2819060626272335e-04 0.0000000000000000e+00  -2.4977521534790137e-06 4.2819060626625785e-04 0.0000000000000000e+00  -2.4977521610560961e-06 8.1419562759308868e-15 0.0000000000000000e+00  6.7347378602366449e-05 5.8667938958314395e-04 0.0000000000000000e+00  6.7347378597776302e-05 5.8667938957906735e-04 0.0000000000000000e+00  6.7347378608240548e-05 5.8667938957247562e-04 0.0000000000000000e+00  6.7347378609235628e-05 5.8667938956887585e-04 0.0000000000000000e+00  6.7347378610712176e-05 5.8667938959064663e-04 0.0000000000000000e+00  6.7347378593828153e-05 5.8667938957629223e-04 0.0000000000000000e+00  6.7347378605191161e-05 5.8667938958776233e-04 0.0000000000000000e+00  6.7347378601981272e-05 5.8667938957956652e-04 0.0000000000000000e+00  6.7347378601596082e-05 5.8667938957932800e-04 0.0000000000000000e+00  6.7347378604998566e-05 5.8667938958650466e-04 0.0000000000000000e+00  6.7347378608497354e-05 5.8667938958854372e-04 0.0000000000000000e+00  6.7347378602526951e-05 5.8667938958368649e-04 0.0000000000000000e+00  6.7347378610198590e-05 5.8667938957830809e-04 0.0000000000000000e+00  6.7347378601403487e-05 5.8667938958210280e-04 0.0000000000000000e+00  6.7347378600601015e-05 5.8667938956996125e-04 0.0000000000000000e+00  6.7347378609460316e-05 5.8667938958552887e-04 0.0000000000000000e+00  6.7347378602366462e-05 5.8667938956876711e-04 0.0000000000000000e+00  6.7347378611193657e-05 5.8667938958709164e-04 0.0000000000000000e+00  6.7347378607470181e-05 5.8667938958112701e-04 0.0000000000000000e+00  6.7347378605897343e-05 5.8667938957154267e-04 0.0000000000000000e+00  6.7347378608112164e-05 5.8667938958804574e-04 0.0000000000000000e+00  6.7347378604003499e-05 5.8667938957106562e-04 0.0000000000000000e+00  6.7347378606346717e-05 5.8667938957993439e-04 0.0000000000000000e+00  6.7347378607117097e-05 5.8667938958607249e-04 0.0000000000000000e+00  6.7347378603329423e-05 5.8667938957262687e-04 0.0000000000000000e+00  6.7347378605672642e-05 5.8667938958171248e-04 0.0000000000000000e+00  6.7347378601981272e-05 5.8667938958101859e-04 0.0000000000000000e+00  6.7347378600954113e-05 5.8667938957793946e-04 0.0000000000000000e+00  6.7347378606603511e-05 5.8667938957362748e-04 0.0000000000000000e+00  6.7347378598450392e-05 5.8667938958145227e-04 0.0000000000000000e+00  6.7347378603168934e-05 5.8667938957219319e-04 0.0000000000000000e+00  6.7347378596781249e-05 5.8667938956703239e-04 0.0000000000000000e+00  6.7347378602430660e-05 5.8667938957414475e-04 0.0000000000000000e+00  6.7347378608240561e-05 5.8667938957499043e-04 0.0000000000000000e+00  6.7347378604838077e-05 5.8667938958091332e-04 0.0000000000000000e+00  6.7347378605897343e-05 5.8667938957581442e-04 0.0000000000000000e+00  6.7347378610551674e-05 5.8667938957451338e-04 0.0000000000000000e+00  6.7347378600922007e-05 5.8667938958366405e-04 0.0000000000000000e+00  6.7347378608272653e-05 5.8667938957752746e-04 0.0000000000000000e+00  6.7347378604870170e-05 5.8667938957607463e-04 0.0000000000000000e+00  6.7347378607084991e-05 5.8667938958856778e-04 0.0000000000000000e+00  6.7347378617067756e-05 5.8667938958637455e-04 0.0000000000000000e+00  6.7347378598033109e-05 5.8667938957763588e-04 0.0000000000000000e+00  6.7347378606250427e-05 5.8667938958414110e-04 0.0000000000000000e+00  6.7347378604581284e-05 5.8667938957986934e-04 0.0000000000000000e+00  6.7347378608272653e-05 5.8667938958453141e-04 0.0000000000000000e+00  6.7347378595850380e-05 5.8667938958635601e-04 0.0000000000000000e+00  6.7347378604452887e-05 5.8667938957501211e-04 0.0000000000000000e+00  6.7347378610487489e-05 5.8667938958231964e-04 0.0000000000000000e+00  6.7347378602976339e-05 5.8667938957924050e-04 0.0000000000000000e+00  6.7347378602366462e-05 8.7239180022608020e-04 0.0000000000000000e+00  -5.1333859940491867e-05 -1.7068588751374333e-05 0.0000000000000000e+00  -5.1333859938741463e-05 -1.7068588745476274e-05 0.0000000000000000e+00  -5.1333859949123153e-05 -1.7068588766943480e-05 0.0000000000000000e+00  -5.1333859933912772e-05 -1.7068588754843774e-05 0.0000000000000000e+00  -5.1333859937836086e-05 -1.7068588756882074e-05 0.0000000000000000e+00  -5.1333859940612586e-05 -1.7068588760308169e-05 0.0000000000000000e+00  -5.1333859941336887e-05 -1.7068588761479081e-05 0.0000000000000000e+00  -5.1333859941819757e-05 -1.7068588759744384e-05 0.0000000000000000e+00  -5.1333859941578325e-05 -1.7068588757055563e-05 0.0000000000000000e+00  -5.1333859933490265e-05 -1.7068588748034974e-05 0.0000000000000000e+00  -5.1333859937715367e-05 -1.7068588746300277e-05 0.0000000000000000e+00  -5.1333859945260202e-05 -1.7068588758660182e-05 0.0000000000000000e+00  -5.1333859934274923e-05 -1.7068588756231542e-05 0.0000000000000000e+00  -5.1333859938439675e-05 -1.7068588747948238e-05 0.0000000000000000e+00  -5.1333859941216168e-05 -1.7068588761218920e-05 0.0000000000000000e+00  -5.1333859928359780e-05 -1.7068588750073274e-05 0.0000000000000000e+00  -5.1333859943509798e-05 -1.7068588759484149e-05 0.0000000000000000e+00  -5.1333859932162375e-05 -1.7068588755450964e-05 0.0000000000000000e+00  -5.1333859942242271e-05 -1.7068588756578487e-05 0.0000000000000000e+00  -5.1333859936749628e-05 -1.7068588757055536e-05 0.0000000000000000e+00  -5.1333859935663176e-05 -1.7068588763777637e-05 0.0000000000000000e+00  -5.1333859937534292e-05 -1.7068588750680427e-05 0.0000000000000000e+00  -5.1333859940793661e-05 -1.7068588762476547e-05 0.0000000000000000e+00  -5.1333859941457606e-05 -1.7068588758313258e-05 0.0000000000000000e+00  -5.1333859949062797e-05 -1.7068588768417975e-05 0.0000000000000000e+00  -5.1333859936447840e-05 -1.7068588758009634e-05 0.0000000000000000e+00  -5.1333859939465771e-05 -1.7068588754583555e-05 0.0000000000000000e+00  -5.1333859949243872e-05 -1.7068588753976402e-05 0.0000000000000000e+00  -5.1333859940854017e-05 -1.7068588759657723e-05 0.0000000000000000e+00  -5.1333859943389085e-05 -1.7068588762086234e-05 0.0000000000000000e+00  -5.1333859940914380e-05 -1.7068588760091302e-05 0.0000000000000000e+00  -5.1333859947191681e-05 -1.7068588763604117e-05 0.0000000000000000e+00  -5.1333859930351615e-05 -1.7068588746256882e-05 0.0000000000000000e+00  -5.1333859943871948e-05 -1.7068588759614253e-05 0.0000000000000000e+00  -5.1333859951416783e-05 -1.7068588765946095e-05 0.0000000000000000e+00  -5.1333859937715367e-05 -1.7068588756014702e-05 0.0000000000000000e+00  -5.1333859940250435e-05 -1.7068588765208736e-05 0.0000000000000000e+00  -5.1333859937051422e-05 -1.7068588766032730e-05 0.0000000000000000e+00  -5.1333859937051422e-05 -1.7068588761348976e-05 0.0000000000000000e+00  -5.1333859945743071e-05 -1.7068588767550613e-05 0.0000000000000000e+00  -5.1333859937172141e-05 -1.7068588751027473e-05 0.0000000000000000e+00  -5.1333859943328722e-05 -1.7068588764211270e-05 0.0000000000000000e+00  -5.1333859946527735e-05 -1.7068588767940926e-05 0.0000000000000000e+00  -5.1333859936568552e-05 -1.7068588757532585e-05 0.0000000000000000e+00  -5.1333859938439675e-05 -1.7068588764298006e-05 0.0000000000000000e+00  -5.1333859937956806e-05 -1.7068588753499353e-05 0.0000000000000000e+00  -5.1333859942966572e-05 -1.7068588751591259e-05 0.0000000000000000e+00  -5.1333859948338495e-05 -1.7068588749552857e-05 0.0000000000000000e+00  -5.1333859931075917e-05 -1.7068588764124534e-05 0.0000000000000000e+00  -5.1333859935361381e-05 -1.7068588748295182e-05 0.0000000000000000e+00  -5.1333859940491867e-05 4.1300437385890758e-05 0.0000000000000000e+00  -5.0762862082007329e-05 5.6755115100323716e-05 0.0000000000000000e+00  -5.0762862087522428e-05 5.6755115106395249e-05 0.0000000000000000e+00  -5.0762862084061973e-05 5.6755115109691230e-05 0.0000000000000000e+00  -5.0762862074221307e-05 5.6755115105527880e-05 0.0000000000000000e+00  -5.0762862070868994e-05 5.6755115110298370e-05 0.0000000000000000e+00  -5.0762862076492229e-05 5.6755115093645065e-05 0.0000000000000000e+00  -5.0762862086116617e-05 5.6755115110471801e-05 0.0000000000000000e+00  -5.0762862080277098e-05 5.6755115102492155e-05 0.0000000000000000e+00  -5.0762862069679455e-05 5.6755115105874865e-05 0.0000000000000000e+00  -5.0762862076708514e-05 5.6755115102145129e-05 0.0000000000000000e+00  -5.0762862081358488e-05 5.6755115099196180e-05 0.0000000000000000e+00  -5.0762862077789897e-05 5.6755115098935972e-05 0.0000000000000000e+00  -5.0762862082439885e-05 5.6755115111859580e-05 0.0000000000000000e+00  -5.0762862079520128e-05 5.6755115093731720e-05 0.0000000000000000e+00  -5.0762862075627111e-05 5.6755115108043338e-05 0.0000000000000000e+00  -5.0762862079087572e-05 5.6755115102058392e-05 0.0000000000000000e+00  -5.0762862091956137e-05 5.6755115087920396e-05 0.0000000000000000e+00  -5.0762862070220154e-05 5.6755115109604589e-05 0.0000000000000000e+00  -5.0762862080601518e-05 5.6755115096767486e-05 0.0000000000000000e+00  -5.0762862079628271e-05 5.6755115098155265e-05 0.0000000000000000e+00  -5.0762862082007322e-05 5.6755115093298188e-05 0.0000000000000000e+00  -5.0762862075735260e-05 5.6755115101017558e-05 0.0000000000000000e+00  -5.0762862085143370e-05 5.6755115097548111e-05 0.0000000000000000e+00  -5.0762862080060820e-05 5.6755115104053474e-05 0.0000000000000000e+00  -5.0762862085251505e-05 5.6755115098935890e-05 0.0000000000000000e+00  -5.0762862074545727e-05 5.6755115103272699e-05 0.0000000000000000e+00  -5.0762862080168962e-05 5.6755115107869716e-05 0.0000000000000000e+00  -5.0762862086008482e-05 5.6755115095206235e-05 0.0000000000000000e+00  -5.0762862085684061e-05 5.6755115096941277e-05 0.0000000000000000e+00  -5.0762862082764305e-05 5.6755115099456307e-05 0.0000000000000000e+00  -5.0762862083088725e-05 5.6755115100670614e-05 0.0000000000000000e+00  -5.0762862077357348e-05 5.6755115109257495e-05 0.0000000000000000e+00  -5.0762862075518982e-05 5.6755115096767486e-05 0.0000000000000000e+00  -5.0762862080817796e-05 5.6755115101104295e-05 0.0000000000000000e+00  -5.0762862075518982e-05 5.6755115102058711e-05 0.0000000000000000e+00  -5.0762862081142217e-05 5.6755115102839018e-05 0.0000000000000000e+00  -5.0762862085575926e-05 5.6755115090956162e-05 0.0000000000000000e+00  -5.0762862074545727e-05 5.6755115107002354e-05 0.0000000000000000e+00  -5.0762862076708514e-05 5.6755115101191031e-05 0.0000000000000000e+00  -5.0762862070652716e-05 5.6755115116196389e-05 0.0000000000000000e+00  -5.0762862073248059e-05 5.6755115106482256e-05 0.0000000000000000e+00  -5.0762862084061973e-05 5.6755115108737078e-05 0.0000000000000000e+00  -5.0762862071409693e-05 5.6755115101017558e-05 0.0000000000000000e+00  -5.0762862077141070e-05 5.6755115107696244e-05 0.0000000000000000e+00  -5.0762862075194561e-05 5.6755115096854222e-05 0.0000000000000000e+00  -5.0762862077465484e-05 5.6755115093037830e-05 0.0000000000000000e+00  -5.0762862079087572e-05 5.6755115086966617e-05 0.0000000000000000e+00  -5.0762862075627117e-05 5.6755115109084023e-05 0.0000000000000000e+00  -5.0762862080493383e-05 5.6755115105007422e-05 0.0000000000000000e+00  -5.0762862074221307e-05 5.6755115107089091e-05 0.0000000000000000e+00  -5.0762862082007329e-05 1.5868341078587031e-04 0.0000000000000000e+00  3.2375606086185399e-04 1.6874361219599424e-03 0.0000000000000000e+00  3.2375606086486032e-04 1.6874361219638455e-03 0.0000000000000000e+00  3.2375606085628358e-04 1.6874361219657542e-03 0.0000000000000000e+00  3.2375606085424983e-04 1.6874361219571666e-03 0.0000000000000000e+00  3.2375606085690249e-04 1.6874361219693097e-03 0.0000000000000000e+00  3.2375606085336566e-04 1.6874361219618517e-03 0.0000000000000000e+00  3.2375606085027092e-04 1.6874361219659261e-03 0.0000000000000000e+00  3.2375606084956358e-04 1.6874361219556934e-03 0.0000000000000000e+00  3.2375606085159722e-04 1.6874361219577751e-03 0.0000000000000000e+00  3.2375606085566461e-04 1.6874361219593342e-03 0.0000000000000000e+00  3.2375606085097830e-04 1.6874361219629793e-03 0.0000000000000000e+00  3.2375606084434678e-04 1.6874361219468463e-03 0.0000000000000000e+00  3.2375606084602675e-04 1.6874361219459768e-03 0.0000000000000000e+00  3.2375606084903303e-04 1.6874361219483187e-03 0.0000000000000000e+00  3.2375606086362243e-04 1.6874361219616806e-03 0.0000000000000000e+00  3.2375606086035085e-04 1.6874361219579464e-03 0.0000000000000000e+00  3.2375606085009408e-04 1.6874361219599413e-03 0.0000000000000000e+00  3.2375606085867088e-04 1.6874361219681858e-03 0.0000000000000000e+00  3.2375606085080147e-04 1.6874361219473646e-03 0.0000000000000000e+00  3.2375606085654877e-04 1.6874361219582933e-03 0.0000000000000000e+00  3.2375606086052769e-04 1.6874361219661909e-03 0.0000000000000000e+00  3.2375606085345408e-04 1.6874361219528290e-03 0.0000000000000000e+00  3.2375606085937821e-04 1.6874361219606352e-03 0.0000000000000000e+00  3.2375606085097830e-04 1.6874361219615939e-03 0.0000000000000000e+00  3.2375606085248144e-04 1.6874361219639312e-03 0.0000000000000000e+00  3.2375606085380775e-04 1.6874361219577729e-03 0.0000000000000000e+00  3.2375606085937821e-04 1.6874361219669670e-03 0.0000000000000000e+00  3.2375606086406452e-04 1.6874361219518749e-03 0.0000000000000000e+00  3.2375606085699091e-04 1.6874361219482413e-03 0.0000000000000000e+00  3.2375606086026244e-04 1.6874361219680078e-03 0.0000000000000000e+00  3.2375606084620359e-04 1.6874361219493595e-03 0.0000000000000000e+00  3.2375606086256138e-04 1.6874361219692221e-03 0.0000000000000000e+00  3.2375606085858246e-04 1.6874361219550841e-03 0.0000000000000000e+00  3.2375606085566461e-04 1.6874361219564719e-03 0.0000000000000000e+00  3.2375606086203088e-04 1.6874361219613384e-03 0.0000000000000000e+00  3.2375606085345408e-04 1.6874361219523086e-03 0.0000000000000000e+00  3.2375606085875930e-04 1.6874361219540433e-03 0.0000000000000000e+00  3.2375606085486880e-04 1.6874361219503136e-03 0.0000000000000000e+00  3.2375606086238454e-04 1.6874361219519616e-03 0.0000000000000000e+00  3.2375606085928980e-04 1.6874361219482320e-03 0.0000000000000000e+00  3.2375606085884771e-04 1.6874361219619456e-03 0.0000000000000000e+00  3.2375606084859094e-04 1.6874361219418135e-03 0.0000000000000000e+00  3.2375606085265828e-04 1.6874361219492728e-03 0.0000000000000000e+00  3.2375606086804343e-04 1.6874361219705231e-03 0.0000000000000000e+00  3.2375606086556765e-04 1.6874361219722579e-03 0.0000000000000000e+00  3.2375606085478038e-04 1.6874361219628036e-03 0.0000000000000000e+00  3.2375606085451513e-04 1.6874361219538791e-03 0.0000000000000000e+00  3.2375606086256138e-04 1.6874361219628036e-03 0.0000000000000000e+00  3.2375606086291504e-04 1.6874361219641914e-03 0.0000000000000000e+00  3.2375606086583296e-04 1.6874361219709568e-03 0.0000000000000000e+00  3.2375606086185399e-04 2.0198952600337217e-04 0.0000000000000000e+00  -5.5777710915845319e-04 -1.3759306589641168e-03 0.0000000000000000e+00  -5.5777710916284280e-04 -1.3759306589642903e-03 0.0000000000000000e+00  -5.5777710916388786e-04 -1.3759306589618619e-03 0.0000000000000000e+00  -5.5777710917465290e-04 -1.3759306589637697e-03 0.0000000000000000e+00  -5.5777710917528001e-04 -1.3759306589693208e-03 0.0000000000000000e+00  -5.5777710917642958e-04 -1.3759306589831996e-03 0.0000000000000000e+00  -5.5777710916315624e-04 -1.3759306589547480e-03 0.0000000000000000e+00  -5.5777710916378334e-04 -1.3759306589715770e-03 0.0000000000000000e+00  -5.5777710915479520e-04 -1.3759306589587400e-03 0.0000000000000000e+00  -5.5777710915928922e-04 -1.3759306589594318e-03 0.0000000000000000e+00  -5.5777710916096149e-04 -1.3759306589844139e-03 0.0000000000000000e+00  -5.5777710915960277e-04 -1.3759306589870160e-03 0.0000000000000000e+00  -5.5777710915374992e-04 -1.3759306589509316e-03 0.0000000000000000e+00  -5.5777710915772146e-04 -1.3759306589571766e-03 0.0000000000000000e+00  -5.5777710916158848e-04 -1.3759306589641194e-03 0.0000000000000000e+00  -5.5777710915730339e-04 -1.3759306589592583e-03 0.0000000000000000e+00  -5.5777710915908018e-04 -1.3759306589530133e-03 0.0000000000000000e+00  -5.5777710916691875e-04 -1.3759306589575275e-03 0.0000000000000000e+00  -5.5777710916545551e-04 -1.3759306589611665e-03 0.0000000000000000e+00  -5.5777710916744133e-04 -1.3759306589759116e-03 0.0000000000000000e+00  -5.5777710916503755e-04 -1.3759306589580479e-03 0.0000000000000000e+00  -5.5777710916326076e-04 -1.3759306589545745e-03 0.0000000000000000e+00  -5.5777710916075245e-04 -1.3759306589563093e-03 0.0000000000000000e+00  -5.5777710916263365e-04 -1.3759306589549254e-03 0.0000000000000000e+00  -5.5777710917778831e-04 -1.3759306589884016e-03 0.0000000000000000e+00  -5.5777710916367882e-04 -1.375930