<?xml version="1.0"?>
<VTKFile type="UnstructuredGrid"  version="0.1"  >
<UnstructuredGrid>
<Piece  NumberOfPoints="2601" NumberOfCells="5000">
<Points>
<DataArray  type="Float64"  NumberOfComponents="3"  format="ascii">0 0 0  0.02 0 0  0.04 0 0  0.06 0 0  0.08 0 0  0.1 0 0  0.12 0 0  0.14 0 0  0.16 0 0  0.18 0 0  0.2 0 0  0.22 0 0  0.24 0 0  0.26 0 0  0.28 0 0  0.3 0 0  0.32 0 0  0.34 0 0  0.36 0 0  0.38 0 0  0.4 0 0  0.42 0 0  0.44 0 0  0.46 0 0  0.48 0 0  0.5 0 0  0.52 0 0  0.54 0 0  0.5600000000000001 0 0  0.58 0 0  0.6 0 0  0.62 0 0  0.64 0 0  0.66 0 0  0.68 0 0  0.7 0 0  0.72 0 0  0.74 0 0  0.76 0 0  0.78 0 0  0.8 0 0  0.82 0 0  0.84 0 0  0.86 0 0  0.88 0 0  0.9 0 0  0.92 0 0  0.9399999999999999 0 0  0.96 0 0  0.98 0 0  1 0 0  0 0.01313563088723984 0  0.02 0.01313563088723984 0  0.04 0.01313563088723984 0  0.06 0.01313563088723984 0  0.08 0.01313563088723984 0  0.1 0.01313563088723984 0  0.12 0.01313563088723984 0  0.14 0.01313563088723984 0  0.16 0.01313563088723984 0  0.18 0.01313563088723984 0  0.2 0.01313563088723984 0  0.22 0.01313563088723984 0  0.24 0.01313563088723984 0  0.26 0.01313563088723984 0  0.28 0.01313563088723984 0  0.3 0.01313563088723984 0  0.32 0.01313563088723984 0  0.34 0.01313563088723984 0  0.36 0.01313563088723984 0  0.38 0.01313563088723984 0  0.4 0.01313563088723984 0  0.42 0.01313563088723984 0  0.44 0.01313563088723984 0  0.46 0.01313563088723984 0  0.48 0.01313563088723984 0  0.5 0.01313563088723984 0  0.52 0.01313563088723984 0  0.54 0.01313563088723984 0  0.5600000000000001 0.01313563088723984 0  0.58 0.01313563088723984 0  0.6 0.01313563088723984 0  0.62 0.01313563088723984 0  0.64 0.01313563088723984 0  0.66 0.01313563088723984 0  0.68 0.01313563088723984 0  0.7 0.01313563088723984 0  0.72 0.01313563088723984 0  0.74 0.01313563088723984 0  0.76 0.01313563088723984 0  0.78 0.01313563088723984 0  0.8 0.01313563088723984 0  0.82 0.01313563088723984 0  0.84 0.01313563088723984 0  0.86 0.01313563088723984 0  0.88 0.01313563088723984 0  0.9 0.01313563088723984 0  0.92 0.01313563088723984 0  0.9399999999999999 0.01313563088723984 0  0.96 0.01313563088723984 0  0.98 0.01313563088723984 0  1 0.01313563088723984 0  0 0.02664639863733726 0  0.02 0.02664639863733726 0  0.04 0.02664639863733726 0  0.06 0.02664639863733726 0  0.08 0.02664639863733726 0  0.1 0.02664639863733726 0  0.12 0.02664639863733726 0  0.14 0.02664639863733726 0  0.16 0.02664639863733726 0  0.18 0.02664639863733726 0  0.2 0.02664639863733726 0  0.22 0.02664639863733726 0  0.24 0.02664639863733726 0  0.26 0.02664639863733726 0  0.28 0.02664639863733726 0  0.3 0.02664639863733726 0  0.32 0.02664639863733726 0  0.34 0.02664639863733726 0  0.36 0.02664639863733726 0  0.38 0.02664639863733726 0  0.4 0.02664639863733726 0  0.42 0.02664639863733726 0  0.44 0.02664639863733726 0  0.46 0.02664639863733726 0  0.48 0.02664639863733726 0  0.5 0.02664639863733726 0  0.52 0.02664639863733726 0  0.54 0.02664639863733726 0  0.5600000000000001 0.02664639863733726 0  0.58 0.02664639863733726 0  0.6 0.02664639863733726 0  0.62 0.02664639863733726 0  0.64 0.02664639863733726 0  0.66 0.02664639863733726 0  0.68 0.02664639863733726 0  0.7 0.02664639863733726 0  0.72 0.02664639863733726 0  0.74 0.02664639863733726 0  0.76 0.02664639863733726 0  0.78 0.02664639863733726 0  0.8 0.02664639863733726 0  0.82 0.02664639863733726 0  0.84 0.02664639863733726 0  0.86 0.02664639863733726 0  0.88 0.02664639863733726 0  0.9 0.02664639863733726 0  0.92 0.02664639863733726 0  0.9399999999999999 0.02664639863733726 0  0.96 0.02664639863733726 0  0.98 0.02664639863733726 0  1 0.02664639863733726 0  0 0.04101652939099896 0  0.02 0.04101652939099896 0  0.04 0.04101652939099896 0  0.06 0.04101652939099896 0  0.08 0.04101652939099896 0  0.1 0.04101652939099896 0  0.12 0.04101652939099896 0  0.14 0.04101652939099896 0  0.16 0.04101652939099896 0  0.18 0.04101652939099896 0  0.2 0.04101652939099896 0  0.22 0.04101652939099896 0  0.24 0.04101652939099896 0  0.26 0.04101652939099896 0  0.28 0.04101652939099896 0  0.3 0.04101652939099896 0  0.32 0.04101652939099896 0  0.34 0.04101652939099896 0  0.36 0.04101652939099896 0  0.38 0.04101652939099896 0  0.4 0.04101652939099896 0  0.42 0.04101652939099896 0  0.44 0.04101652939099896 0  0.46 0.04101652939099896 0  0.48 0.04101652939099896 0  0.5 0.04101652939099896 0  0.52 0.04101652939099896 0  0.54 0.04101652939099896 0  0.5600000000000001 0.04101652939099896 0  0.58 0.04101652939099896 0  0.6 0.04101652939099896 0  0.62 0.04101652939099896 0  0.64 0.04101652939099896 0  0.66 0.04101652939099896 0  0.68 0.04101652939099896 0  0.7 0.04101652939099896 0  0.72 0.04101652939099896 0  0.74 0.04101652939099896 0  0.76 0.04101652939099896 0  0.78 0.04101652939099896 0  0.8 0.04101652939099896 0  0.82 0.04101652939099896 0  0.84 0.04101652939099896 0  0.86 0.04101652939099896 0  0.88 0.04101652939099896 0  0.9 0.04101652939099896 0  0.92 0.04101652939099896 0  0.9399999999999999 0.04101652939099896 0  0.96 0.04101652939099896 0  0.98 0.04101652939099896 0  1 0.04101652939099896 0  0 0.05705811164099547 0  0.02 0.05705811164099547 0  0.04 0.05705811164099547 0  0.06 0.05705811164099547 0  0.08 0.05705811164099547 0  0.1 0.05705811164099547 0  0.12 0.05705811164099547 0  0.14 0.05705811164099547 0  0.16 0.05705811164099547 0  0.18 0.05705811164099547 0  0.2 0.05705811164099547 0  0.22 0.05705811164099547 0  0.24 0.05705811164099547 0  0.26 0.05705811164099547 0  0.28 0.05705811164099547 0  0.3 0.05705811164099547 0  0.32 0.05705811164099547 0  0.34 0.05705811164099547 0  0.36 0.05705811164099547 0  0.38 0.05705811164099547 0  0.4 0.05705811164099547 0  0.42 0.05705811164099547 0  0.44 0.05705811164099547 0  0.46 0.05705811164099547 0  0.48 0.05705811164099547 0  0.5 0.05705811164099547 0  0.52 0.05705811164099547 0  0.54 0.05705811164099547 0  0.5600000000000001 0.05705811164099547 0  0.58 0.05705811164099547 0  0.6 0.05705811164099547 0  0.62 0.05705811164099547 0  0.64 0.05705811164099547 0  0.66 0.05705811164099547 0  0.68 0.05705811164099547 0  0.7 0.05705811164099547 0  0.72 0.05705811164099547 0  0.74 0.05705811164099547 0  0.76 0.05705811164099547 0  0.78 0.05705811164099547 0  0.8 0.05705811164099547 0  0.82 0.05705811164099547 0  0.84 0.05705811164099547 0  0.86 0.05705811164099547 0  0.88 0.05705811164099547 0  0.9 0.05705811164099547 0  0.92 0.05705811164099547 0  0.9399999999999999 0.05705811164099547 0  0.96 0.05705811164099547 0  0.98 0.05705811164099547 0  1 0.05705811164099547 0  0 0.07667714377545 0  0.02 0.07667714377545 0  0.04 0.07667714377545 0  0.06 0.07667714377545 0  0.08 0.07667714377545 0  0.1 0.07667714377545 0  0.12 0.07667714377545 0  0.14 0.07667714377545 0  0.16 0.07667714377545 0  0.18 0.07667714377545 0  0.2 0.07667714377545 0  0.22 0.07667714377545 0  0.24 0.07667714377545 0  0.26 0.07667714377545 0  0.28 0.07667714377545 0  0.3 0.07667714377545 0  0.32 0.07667714377545 0  0.34 0.07667714377545 0  0.36 0.07667714377545 0  0.38 0.07667714377545 0  0.4 0.07667714377545 0  0.42 0.07667714377545 0  0.44 0.07667714377545 0  0.46 0.07667714377545 0  0.48 0.07667714377545 0  0.5 0.07667714377545 0  0.52 0.07667714377545 0  0.54 0.07667714377545 0  0.5600000000000001 0.07667714377545 0  0.58 0.07667714377545 0  0.6 0.07667714377545 0  0.62 0.07667714377545 0  0.64 0.07667714377545 0  0.66 0.07667714377545 0  0.68 0.07667714377545 0  0.7 0.07667714377545 0  0.72 0.07667714377545 0  0.74 0.07667714377545 0  0.76 0.07667714377545 0  0.78 0.07667714377545 0  0.8 0.07667714377545 0  0.82 0.07667714377545 0  0.84 0.07667714377545 0  0.86 0.07667714377545 0  0.88 0.07667714377545 0  0.9 0.07667714377545 0  0.92 0.07667714377545 0  0.9399999999999999 0.07667714377545 0  0.96 0.07667714377545 0  0.98 0.07667714377545 0  1 0.07667714377545 0  0 0.1098730133816912 0  0.02 0.1098730133816912 0  0.04 0.1098730133816912 0  0.06 0.1098730133816912 0  0.08 0.1098730133816912 0  0.1 0.1098730133816912 0  0.12 0.1098730133816912 0  0.14 0.1098730133816912 0  0.16 0.1098730133816912 0  0.18 0.1098730133816912 0  0.2 0.1098730133816912 0  0.22 0.1098730133816912 0  0.24 0.1098730133816912 0  0.26 0.1098730133816912 0  0.28 0.1098730133816912 0  0.3 0.1098730133816912 0  0.32 0.1098730133816912 0  0.34 0.1098730133816912 0  0.36 0.1098730133816912 0  0.38 0.1098730133816912 0  0.4 0.1098730133816912 0  0.42 0.1098730133816912 0  0.44 0.1098730133816912 0  0.46 0.1098730133816912 0  0.48 0.1098730133816912 0  0.5 0.1098730133816912 0  0.52 0.1098730133816912 0  0.54 0.1098730133816912 0  0.5600000000000001 0.1098730133816912 0  0.58 0.1098730133816912 0  0.6 0.1098730133816912 0  0.62 0.1098730133816912 0  0.64 0.1098730133816912 0  0.66 0.1098730133816912 0  0.68 0.1098730133816912 0  0.7 0.1098730133816912 0  0.72 0.1098730133816912 0  0.74 0.1098730133816912 0  0.76 0.1098730133816912 0  0.78 0.1098730133816912 0  0.8 0.1098730133816912 0  0.82 0.1098730133816912 0  0.84 0.1098730133816912 0  0.86 0.1098730133816912 0  0.88 0.1098730133816912 0  0.9 0.1098730133816912 0  0.92 0.1098730133816912 0  0.9399999999999999 0.1098730133816912 0  0.96 0.1098730133816912 0  0.98 0.1098730133816912 0  1 0.1098730133816912 0  0 0.1603283563168221 0  0.02 0.1603283563168221 0  0.04 0.1603283563168221 0  0.06 0.1603283563168221 0  0.08 0.1603283563168221 0  0.1 0.1603283563168221 0  0.12 0.1603283563168221 0  0.14 0.1603283563168221 0  0.16 0.1603283563168221 0  0.18 0.1603283563168221 0  0.2 0.1603283563168221 0  0.22 0.1603283563168221 0  0.24 0.1603283563168221 0  0.26 0.1603283563168221 0  0.28 0.1603283563168221 0  0.3 0.1603283563168221 0  0.32 0.1603283563168221 0  0.34 0.1603283563168221 0  0.36 0.1603283563168221 0  0.38 0.1603283563168221 0  0.4 0.1603283563168221 0  0.42 0.1603283563168221 0  0.44 0.1603283563168221 0  0.46 0.1603283563168221 0  0.48 0.1603283563168221 0  0.5 0.1603283563168221 0  0.52 0.1603283563168221 0  0.54 0.1603283563168221 0  0.5600000000000001 0.1603283563168221 0  0.58 0.1603283563168221 0 
[...]
<PointData  Vectors="u_paraw"> 
<DataArray  type="Float64"  Name="u_paraw"  NumberOfComponents="3" format="ascii">2.4021086672659287e-05 2.0633327777716580e-04 0.0000000000000000e+00  2.4021086672725318e-05 2.0633327778733562e-04 0.0000000000000000e+00  2.4021086678998278e-05 2.0633327779146643e-04 0.0000000000000000e+00  2.4021086677809721e-05 2.0633327777674294e-04 0.0000000000000000e+00  2.4021086675845293e-05 2.0633327778115564e-04 0.0000000000000000e+00  2.4021086661070802e-05 2.0633327778021249e-04 0.0000000000000000e+00  2.4021086672329123e-05 2.0633327777640664e-04 0.0000000000000000e+00  2.4021086669918986e-05 2.0633327777025952e-04 0.0000000000000000e+00  2.4021086679790654e-05 2.0633327778410478e-04 0.0000000000000000e+00  2.4021086666765994e-05 2.0633327778245649e-04 0.0000000000000000e+00  2.4021086678519552e-05 2.0633327777563716e-04 0.0000000000000000e+00  2.4021086673451655e-05 2.0633327777890061e-04 0.0000000000000000e+00  2.4021086669489781e-05 2.0633327777183131e-04 0.0000000000000000e+00  2.4021086684742994e-05 2.0633327778775824e-04 0.0000000000000000e+00  2.4021086674442125e-05 2.0633327778698908e-04 0.0000000000000000e+00  2.4021086666931074e-05 2.0633327778252154e-04 0.0000000000000000e+00  2.4021086682679517e-05 2.0633327778754140e-04 0.0000000000000000e+00  2.4021086682415395e-05 2.0633327779178125e-04 0.0000000000000000e+00  2.4021086665280291e-05 2.0633327776980385e-04 0.0000000000000000e+00  2.4021086682778566e-05 2.0633327778796424e-04 0.0000000000000000e+00  2.4021086679014785e-05 2.0633327777844557e-04 0.0000000000000000e+00  2.4021086683372847e-05 2.0633327777719811e-04 0.0000000000000000e+00  2.4021086679823667e-05 2.0633327778424543e-04 0.0000000000000000e+00  2.4021086676555123e-05 2.0633327778572056e-04 0.0000000000000000e+00  2.4021086685353783e-05 2.0633327778295523e-04 0.0000000000000000e+00  2.4021086673270069e-05 2.0633327777496466e-04 0.0000000000000000e+00  2.4021086673138006e-05 2.0633327778596931e-04 0.0000000000000000e+00  2.4021086659568592e-05 2.0633327777953999e-04 0.0000000000000000e+00  2.4021086685238227e-05 2.0633327777783896e-04 0.0000000000000000e+00  2.4021086666650438e-05 2.0633327777225415e-04 0.0000000000000000e+00  2.4021086675184976e-05 2.0633327776963038e-04 0.0000000000000000e+00  2.4021086679031292e-05 2.0633327778203365e-04 0.0000000000000000e+00  2.4021086669522798e-05 2.0633327778694509e-04 0.0000000000000000e+00  2.4021086669869462e-05 2.0633327776800408e-04 0.0000000000000000e+00  2.4021086669539305e-05 2.0633327777770885e-04 0.0000000000000000e+00  2.4021086673402131e-05 2.0633327777701380e-04 0.0000000000000000e+00  2.4021086681738575e-05 2.0633327778841960e-04 0.0000000000000000e+00  2.4021086668763440e-05 2.0633327777977851e-04 0.0000000000000000e+00  2.4021086676340522e-05 2.0633327777198310e-04 0.0000000000000000e+00  2.4021086673996413e-05 2.0633327778251070e-04 0.0000000000000000e+00  2.4021086679691605e-05 2.0633327778869182e-04 0.0000000000000000e+00  2.4021086670480250e-05 2.0633327777888947e-04 0.0000000000000000e+00  2.4021086678635107e-05 2.0633327778024472e-04 0.0000000000000000e+00  2.4021086677116388e-05 2.0633327779113011e-04 0.0000000000000000e+00  2.4021086668680898e-05 2.0633327778511279e-04 0.0000000000000000e+00  2.4021086678189395e-05 2.0633327777588623e-04 0.0000000000000000e+00  2.4021086677611621e-05 2.0633327779579334e-04 0.0000000000000000e+00  2.4021086678602090e-05 2.0633327777093142e-04 0.0000000000000000e+00  2.4021086674161489e-05 2.0633327778007125e-04 0.0000000000000000e+00  2.4021086668664391e-05 2.0633327777829316e-04 0.0000000000000000e+00  2.4021086672659280e-05 -9.0950937384390953e-15 0.0000000000000000e+00  -1.2939923982028349e-06 3.5649454675833012e-05 0.0000000000000000e+00  -1.2939923966620875e-06 3.5649454675399331e-05 0.0000000000000000e+00  -1.2939923907558888e-06 3.5649454687499041e-05 0.0000000000000000e+00  -1.2939924003855609e-06 3.5649454673209243e-05 0.0000000000000000e+00  -1.2939923957312195e-06 3.5649454676223325e-05 0.0000000000000000e+00  -1.2939924040448362e-06 3.5649454676049879e-05 0.0000000000000000e+00  -1.2939923963089997e-06 3.5649454672558694e-05 0.0000000000000000e+00  -1.2939923936447906e-06 3.5649454679085645e-05 0.0000000000000000e+00  -1.2939923926818234e-06 3.5649454673230954e-05 0.0000000000000000e+00  -1.2939924011559346e-06 3.5649454670867339e-05 0.0000000000000000e+00  -1.2939923984596265e-06 3.5649454669761507e-05 0.0000000000000000e+00  -1.2939923974966593e-06 3.5649454667354578e-05 0.0000000000000000e+00  -1.2939923970151757e-06 3.5649454675876353e-05 0.0000000000000000e+00  -1.2939923915262627e-06 3.5649454674119945e-05 0.0000000000000000e+00  -1.2939924022472974e-06 3.5649454669804922e-05 0.0000000000000000e+00  -1.2939924009954401e-06 3.5649454675832985e-05 0.0000000000000000e+00  -1.2939923884126687e-06 3.5649454686523218e-05 0.0000000000000000e+00  -1.2939923959238127e-06 3.5649454679888002e-05 0.0000000000000000e+00  -1.2939924078325071e-06 3.5649454670650498e-05 0.0000000000000000e+00  -1.2939923822496788e-06 3.5649454683205559e-05 0.0000000000000000e+00  -1.2939923934521971e-06 3.5649454676114979e-05 0.0000000000000000e+00  -1.2939923879953830e-06 3.5649454680148109e-05 0.0000000000000000e+00  -1.2939923944472632e-06 3.5649454672471958e-05 0.0000000000000000e+00  -1.2939923916546583e-06 3.5649454675789718e-05 0.0000000000000000e+00  -1.2939923893114382e-06 3.5649454673339320e-05 0.0000000000000000e+00  -1.2939924020226050e-06 3.5649454673404372e-05 0.0000000000000000e+00  -1.2939923985559232e-06 3.5649454661087835e-05 0.0000000000000000e+00  -1.2939923914941637e-06 3.5649454677827917e-05 0.0000000000000000e+00  -1.2939924021830995e-06 3.5649454673231096e-05 0.0000000000000000e+00  -1.2939924006744510e-06 3.5649454669674716e-05 0.0000000000000000e+00  -1.2939923879311851e-06 3.5649454681297364e-05 0.0000000000000000e+00  -1.2939923906916911e-06 3.5649454678261598e-05 0.0000000000000000e+00  -1.2939923954423291e-06 3.5649454675464356e-05 0.0000000000000000e+00  -1.2939924061954628e-06 3.5649454671235967e-05 0.0000000000000000e+00  -1.2939923917830538e-06 3.5649454678110006e-05 0.0000000000000000e+00  -1.2939923939657796e-06 3.5649454671040811e-05 0.0000000000000000e+00  -1.2939923840793163e-06 3.5649454675746249e-05 0.0000000000000000e+00  -1.2939924007065500e-06 3.5649454679497588e-05 0.0000000000000000e+00  -1.2939923909805812e-06 3.5649454678695278e-05 0.0000000000000000e+00  -1.2939923935805927e-06 3.5649454681535888e-05 0.0000000000000000e+00  -1.2939923904348999e-06 3.5649454679129156e-05 0.0000000000000000e+00  -1.2939924022793963e-06 3.5649454670889023e-05 0.0000000000000000e+00  -1.2939923895040314e-06 3.5649454678760331e-05 0.0000000000000000e+00  -1.2939923902423064e-06 3.5649454672992375e-05 0.0000000000000000e+00  -1.2939924077362104e-06 3.5649454670303554e-05 0.0000000000000000e+00  -1.2939923908842846e-06 3.5649454680972103e-05 0.0000000000000000e+00  -1.2939923961485052e-06 3.5649454673578041e-05 0.0000000000000000e+00  -1.2939923936126916e-06 3.5649454673751317e-05 0.0000000000000000e+00  -1.2939923940299773e-06 3.5649454684203025e-05 0.0000000000000000e+00  -1.2939923975287581e-06 3.5649454681709360e-05 0.0000000000000000e+00  -1.2939923982028351e-06 3.1636222434433634e-04 0.0000000000000000e+00  -1.0419395986283114e-05 -1.1159739346988315e-04 0.0000000000000000e+00  -1.0419395981454422e-05 -1.1159739347135766e-04 0.0000000000000000e+00  -1.0419395976625729e-05 -1.1159739347569449e-04 0.0000000000000000e+00  -1.0419395985257017e-05 -1.1159739347656181e-04 0.0000000000000000e+00  -1.0419395985015582e-05 -1.1159739346953618e-04 0.0000000000000000e+00  -1.0419395991655034e-05 -1.1159739347608484e-04 0.0000000000000000e+00  -1.0419395972038471e-05 -1.1159739346142626e-04 0.0000000000000000e+00  -1.0419395981997649e-05 -1.1159739346589334e-04 0.0000000000000000e+00  -1.0419395985196657e-05 -1.1159739347734251e-04 0.0000000000000000e+00  -1.0419395976384294e-05 -1.1159739348042149e-04 0.0000000000000000e+00  -1.0419395980730117e-05 -1.1159739345370691e-04 0.0000000000000000e+00  -1.0419395984110202e-05 -1.1159739347912061e-04 0.0000000000000000e+00  -1.0419395970529506e-05 -1.1159739346689064e-04 0.0000000000000000e+00  -1.0419395976444654e-05 -1.1159739347114072e-04 0.0000000000000000e+00  -1.0419395977953619e-05 -1.1159739347942433e-04 0.0000000000000000e+00  -1.0419395972581699e-05 -1.1159739346962283e-04 0.0000000000000000e+00  -1.0419395976565371e-05 -1.1159739347734235e-04 0.0000000000000000e+00  -1.0419395985558810e-05 -1.1159739347807992e-04 0.0000000000000000e+00  -1.0419395979824739e-05 -1.1159739346476561e-04 0.0000000000000000e+00  -1.0419395969503408e-05 -1.1159739346797485e-04 0.0000000000000000e+00  -1.0419395987731722e-05 -1.1159739348406472e-04 0.0000000000000000e+00  -1.0419395969322331e-05 -1.1159739347339586e-04 0.0000000000000000e+00  -1.0419395990749654e-05 -1.1159739348324041e-04 0.0000000000000000e+00  -1.0419395972279906e-05 -1.1159739346845221e-04 0.0000000000000000e+00  -1.0419395981031911e-05 -1.1159739347994444e-04 0.0000000000000000e+00  -1.0419395984411995e-05 -1.1159739346819169e-04 0.0000000000000000e+00  -1.0419395983989484e-05 -1.1159739347257186e-04 0.0000000000000000e+00  -1.0419395976323936e-05 -1.1159739347287544e-04 0.0000000000000000e+00  -1.0419395983627334e-05 -1.1159739347313628e-04 0.0000000000000000e+00  -1.0419395983929127e-05 -1.1159739347651836e-04 0.0000000000000000e+00  -1.0419395973668156e-05 -1.1159739347526068e-04 0.0000000000000000e+00  -1.0419395982721954e-05 -1.1159739347287544e-04 0.0000000000000000e+00  -1.0419395988093874e-05 -1.1159739347968423e-04 0.0000000000000000e+00  -1.0419395987671362e-05 -1.1159739347057693e-04 0.0000000000000000e+00  -1.0419395993164000e-05 -1.1159739346897295e-04 0.0000000000000000e+00  -1.0419395987731722e-05 -1.1159739347677857e-04 0.0000000000000000e+00  -1.0419395972642059e-05 -1.1159739347521732e-04 0.0000000000000000e+00  -1.0419395975901426e-05 -1.1159739348857469e-04 0.0000000000000000e+00  -1.0419395970408788e-05 -1.1159739346884221e-04 0.0000000000000000e+00  -1.0419395979824739e-05 -1.1159739347239839e-04 0.0000000000000000e+00  -1.0419395983325539e-05 -1.1159739348857532e-04 0.0000000000000000e+00  -1.0419395987611004e-05 -1.1159739346875547e-04 0.0000000000000000e+00  -1.0419395979462586e-05 -1.1159739346793148e-04 0.0000000000000000e+00  -1.0419395984593072e-05 -1.1159739347768930e-04 0.0000000000000000e+00  -1.0419395985257017e-05 -1.1159739347534742e-04 0.0000000000000000e+00  -1.0419395974996046e-05 -1.1159739346897231e-04 0.0000000000000000e+00  -1.0419395990206427e-05 -1.1159739347487101e-04 0.0000000000000000e+00  -1.0419395980126531e-05 -1.1159739346845189e-04 0.0000000000000000e+00  -1.0419395971133091e-05 -1.1159739345244907e-04 0.0000000000000000e+00  -1.0419395979643662e-05 -1.1159739347018662e-04 0.0000000000000000e+00  -1.0419395986283114e-05 -2.4052848335680242e-04 0.0000000000000000e+00  -3.7709136005405296e-05 1.9128359002367964e-04 0.0000000000000000e+00  -3.7709136003458788e-05 1.9128359003452167e-04 0.0000000000000000e+00  -3.7709136007568076e-05 1.9128359002324599e-04 0.0000000000000000e+00  -3.7709136005945988e-05 1.9128359002090406e-04 0.0000000000000000e+00  -3.7709135992320453e-05 1.9128359003322060e-04 0.0000000000000000e+00  -3.7709135991130921e-05 1.9128359003408809e-04 0.0000000000000000e+00  -3.7709135998484387e-05 1.9128359002740914e-04 0.0000000000000000e+00  -3.7709135999565777e-05 1.9128359003755754e-04 0.0000000000000000e+00  -3.7709136006919236e-05 1.9128359003669018e-04 0.0000000000000000e+00  -3.7709136003783208e-05 1.9128359002610810e-04 0.0000000000000000e+00  -3.7709135987129768e-05 1.9128359002177156e-04 0.0000000000000000e+00  -3.7709135995780901e-05 1.9128359003929226e-04 0.0000000000000000e+00  -3.7709136004432042e-05 1.9128359002272538e-04 0.0000000000000000e+00  -3.7709136006378544e-05 1.9128359003191942e-04 0.0000000000000000e+00  -3.7709135995456488e-05 1.9128359003261382e-04 0.0000000000000000e+00  -3.7709135996862298e-05 1.9128359002879692e-04 0.0000000000000000e+00  -3.7709136008757609e-05 1.9128359000850065e-04 0.0000000000000000e+00  -3.7709136000971587e-05 1.9128359003139952e-04 0.0000000000000000e+00  -3.7709136005945988e-05 1.9128359002992449e-04 0.0000000000000000e+00  -3.7709135999133221e-05 1.9128359001153642e-04 0.0000000000000000e+00  -3.7709135995672766e-05 1.9128359003287403e-04 0.0000000000000000e+00  -3.7709136000106475e-05 1.9128359001431198e-04 0.0000000000000000e+00  -3.7709136006919242e-05 1.9128359002419990e-04 0.0000000000000000e+00  -3.7709135992644867e-05 1.9128359002472083e-04 0.0000000000000000e+00  -3.7709135998700665e-05 1.9128359002454684e-04 0.0000000000000000e+00  -3.7709136000106475e-05 1.9128359003139900e-04 0.0000000000000000e+00  -3.7709136006919242e-05 1.9128359003963894e-04 0.0000000000000000e+00  -3.7709136012975040e-05 1.9128359002515400e-04 0.0000000000000000e+00  -3.7709135993942542e-05 1.9128359002688978e-04 0.0000000000000000e+00  -3.7709136007135520e-05 1.9128359001613344e-04 0.0000000000000000e+00  -3.7709136000647173e-05 1.9128359001370482e-04 0.0000000000000000e+00  -3.7709135996537885e-05 1.9128359001821510e-04 0.0000000000000000e+00  -3.7709136003350652e-05 1.9128359002975101e-04 0.0000000000000000e+00  -3.7709136002701818e-05 1.9128359002029677e-04 0.0000000000000000e+00  -3.7709136006919242e-05 1.9128359002584894e-04 0.0000000000000000e+00  -3.7709136003350652e-05 1.9128359002940407e-04 0.0000000000000000e+00  -3.7709136009082029e-05 1.9128359003634296e-04 0.0000000000000000e+00  -3.7709135996862298e-05 1.9128359003296025e-04 0.0000000000000000e+00  -3.7709135997619275e-05 1.9128359001136295e-04 0.0000000000000000e+00  -3.7709135997402997e-05 1.9128359003235310e-04 0.0000000000000000e+00  -3.7709135997727410e-05 1.9128359001891005e-04 0.0000000000000000e+00  -3.7709135998159973e-05 1.9128359002428664e-04 0.0000000000000000e+00  -3.7709135994699518e-05 1.9128359002515400e-04 0.0000000000000000e+00  -3.7709136000106475e-05 1.9128359002836324e-04 0.0000000000000000e+00  -3.7709135986697218e-05 1.9128359004414922e-04 0.0000000000000000e+00  -3.7709135996105329e-05 1.9128359002940407e-04 0.0000000000000000e+00  -3.7709135997186719e-05 1.9128359003599708e-04 0.0000000000000000e+00  -3.7709135991455341e-05 1.9128359003634296e-04 0.0000000000000000e+00  -3.7709135998808807e-05 1.9128359001890899e-04 0.0000000000000000e+00  -3.7709136005189018e-05 1.9128359003148574e-04 0.0000000000000000e+00  -3.7709136005405296e-05 6.3891114380015755e-05 0.0000000000000000e+00  1.8412548444521484e-04 3.6152170726890318e-04 0.0000000000000000e+00  1.8412548447076837e-04 3.6152170728165339e-04 0.0000000000000000e+00  1.8412548445273061e-04 3.6152170728017899e-04 0.0000000000000000e+00  1.8412548444636431e-04 3.6152170727089805e-04 0.0000000000000000e+00  1.8412548445343794e-04 3.6152170727393382e-04 0.0000000000000000e+00  1.8412548445343794e-04 3.6152170728382202e-04 0.0000000000000000e+00  1.8412548443822965e-04 3.6152170727306624e-04 0.0000000000000000e+00  1.8412548445175797e-04 3.6152170729318952e-04 0.0000000000000000e+00  1.8412548443071390e-04 3.6152170726838298e-04 0.0000000000000000e+00  1.8412548445158111e-04 3.6152170727601527e-04 0.0000000000000000e+00  1.8412548443805279e-04 3.6152170727107180e-04 0.0000000000000000e+00  1.8412548443124443e-04 3.6152170725823484e-04 0.0000000000000000e+00  1.8412548444362328e-04 3.6152170726369874e-04 0.0000000000000000e+00  1.8412548443486965e-04 3.6152170725814762e-04 0.0000000000000000e+00  1.8412548445414530e-04 3.6152170728720521e-04 0.0000000000000000e+00  1.8412548444954744e-04 3.6152170727636222e-04 0.0000000000000000e+00  1.8412548445113902e-04 3.6152170728295417e-04 0.0000000000000000e+00  1.8412548445052008e-04 3.6152170727818465e-04 0.0000000000000000e+00  1.8412548445334952e-04 3.6152170729882689e-04 0.0000000000000000e+00  1.8412548444486117e-04 3.6152170726525999e-04 0.0000000000000000e+00  1.8412548444972430e-04 3.6152170727627646e-04 0.0000000000000000e+00  1.8412548444441906e-04 3.6152170727271930e-04 0.0000000000000000e+00  1.8412548445432216e-04 3.6152170728373479e-04 0.0000000000000000e+00  1.8412548445273058e-04 3.6152170727341416e-04 0.0000000000000000e+00  1.8412548445069691e-04 3.6152170727688263e-04 0.0000000000000000e+00  1.8412548444928219e-04 3.6152170727653569e-04 0.0000000000000000e+00  1.8412548444353486e-04 3.6152170726751513e-04 0.0000000000000000e+00  1.8412548446227999e-04 3.6152170727809694e-04 0.0000000000000000e+00  1.8412548445821266e-04 3.6152170726803755e-04 0.0000000000000000e+00  1.8412548445220005e-04 3.6152170726621408e-04 0.0000000000000000e+00  1.8412548444530328e-04 3.6152170727020395e-04 0.0000000000000000e+00  1.8412548445538319e-04 3.6152170727089784e-04 0.0000000000000000e+00  1.8412548444609906e-04 3.6152170727471423e-04 0.0000000000000000e+00  1.8412548444760219e-04 3.6152170725398428e-04 0.0000000000000000e+00  1.8412548445582530e-04 3.6152170726422116e-04 0.0000000000000000e+00  1.8412548446581682e-04 3.6152170729691869e-04 0.0000000000000000e+00  1.8412548445175797e-04 3.6152170727601527e-04 0.0000000000000000e+00  1.8412548444724853e-04 3.6152170726439262e-04 0.0000000000000000e+00  1.8412548444574536e-04 3.6152170728252048e-04 0.0000000000000000e+00  1.8412548444388853e-04 3.6152170725268324e-04 0.0000000000000000e+00  1.8412548445617899e-04 3.6152170727159373e-04 0.0000000000000000e+00  1.8412548446015791e-04 3.6152170728252048e-04 0.0000000000000000e+00  1.8412548445715160e-04 3.6152170727263256e-04 0.0000000000000000e+00  1.8412548445838949e-04 3.6152170727419381e-04 0.0000000000000000e+00  1.8412548445900844e-04 3.6152170727636222e-04 0.0000000000000000e+00  1.8412548445732844e-04 3.6152170727740305e-04 0.0000000000000000e+00  1.8412548445264216e-04 3.6152170728130818e-04 0.0000000000000000e+00  1.8412548445334952e-04 3.6152170727150499e-04 0.0000000000000000e+00  1.8412548445264216e-04 3.6152170728529604e-04 0.0000000000000000e+00  1.8412548445777055e-04 3.6152170729292883e-04 0.0000000000000000e+00  1.8412548444521484e-04 5.0049277324553006e-04 0.0000000000000000e+00  1.0722502798809556e-05 -4.2093941945049729e-04 0.0000000000000000e+00  1.0722502795360581e-05 -4.2093941943679297e-04 0.0000000000000000e+00  1.0722502784909138e-05 -4.2093941944824220e-04 0.0000000000000000e+00  1.0722502780833077e-05 -4.2093941945084418e-04 0.0000000000000000e+00  1.0722502775607356e-05 -4.2093941943002750e-04 0.0000000000000000e+00  1.0722502766723631e-05 -4.2093941947669188e-04 0.0000000000000000e+00  1.0722502793374806e-05 -4.2093941944581310e-04 0.0000000000000000e+00  1.0722502797137326e-05 -4.2093941944910978e-04 0.0000000000000000e+00  1.0722502788880686e-05 -4.2093941944060963e-04 0.0000000000000000e+00  1.0722502796092181e-05 -4.2093941948727299e-04 0.0000000000000000e+00  1.0722502805916536e-05 -4.2093941942378282e-04 0.0000000000000000e+00  1.0722502797764412e-05 -4.2093941945951812e-04 0.0000000000000000e+00  1.0722502809156483e-05 -4.2093941944321102e-04 0.0000000000000000e+00  1.0722502801004359e-05 -4.2093941943505781e-04 0.0000000000000000e+00  1.0722502786894912e-05 -4.2093941945639611e-04 0.0000000000000000e+00  1.0722502795151551e-05 -4.2093941944945602e-04 0.0000000000000000e+00  1.0722502797764412e-05 -4.2093941943731296e-04 0.0000000000000000e+00  1.0722502784595594e-05 -4.2093941945119194e-04 0.0000000000000000e+00  1.0722502787208455e-05 -4.2093941945518061e-04 0.0000000000000000e+00  1.0722502784282051e-05 -4.2093941943106795e-04 0.0000000000000000e+00  1.0722502781669190e-05 -4.2093941945743694e-04 0.0000000000000000e+00  1.0722502788149085e-05 -4.2093941943020059e-04 0.0000000000000000e+00  1.0722502791180003e-05 -4.2093941942968017e-04 0.0000000000000000e+00  1.0722502786581368e-05 -4.2093941945466138e-04 0.0000000000000000e+00  1.0722502787940056e-05 -4.2093941944286407e-04 0.0000000000000000e+00  1.0722502784804623e-05 -4.2093941946957881e-04 0.0000000