<?xml version="1.0"?>
<VTKFile type="UnstructuredGrid"  version="0.1"  >
<UnstructuredGrid>
<Piece  NumberOfPoints="2601" NumberOfCells="5000">
<Points>
<DataArray  type="Float64"  NumberOfComponents="3"  format="ascii">0 0 0  0.02 0 0  0.04 0 0  0.06 0 0  0.08 0 0  0.1 0 0  0.12 0 0  0.14 0 0  0.16 0 0  0.18 0 0  0.2 0 0  0.22 0 0  0.24 0 0  0.26 0 0  0.28 0 0  0.3 0 0  0.32 0 0  0.34 0 0  0.36 0 0  0.38 0 0  0.4 0 0  0.42 0 0  0.44 0 0  0.46 0 0  0.48 0 0  0.5 0 0  0.52 0 0  0.54 0 0  0.5600000000000001 0 0  0.58 0 0  0.6 0 0  0.62 0 0  0.64 0 0  0.66 0 0  0.68 0 0  0.7 0 0  0.72 0 0  0.74 0 0  0.76 0 0  0.78 0 0  0.8 0 0  0.82 0 0  0.84 0 0  0.86 0 0  0.88 0 0  0.9 0 0  0.92 0 0  0.9399999999999999 0 0  0.96 0 0  0.98 0 0  1 0 0  0 0.01313563088723984 0  0.02 0.01313563088723984 0  0.04 0.01313563088723984 0  0.06 0.01313563088723984 0  0.08 0.01313563088723984 0  0.1 0.01313563088723984 0  0.12 0.01313563088723984 0  0.14 0.01313563088723984 0  0.16 0.01313563088723984 0  0.18 0.01313563088723984 0  0.2 0.01313563088723984 0  0.22 0.01313563088723984 0  0.24 0.01313563088723984 0  0.26 0.01313563088723984 0  0.28 0.01313563088723984 0  0.3 0.01313563088723984 0  0.32 0.01313563088723984 0  0.34 0.01313563088723984 0  0.36 0.01313563088723984 0  0.38 0.01313563088723984 0  0.4 0.01313563088723984 0  0.42 0.01313563088723984 0  0.44 0.01313563088723984 0  0.46 0.01313563088723984 0  0.48 0.01313563088723984 0  0.5 0.01313563088723984 0  0.52 0.01313563088723984 0  0.54 0.01313563088723984 0  0.5600000000000001 0.01313563088723984 0  0.58 0.01313563088723984 0  0.6 0.01313563088723984 0  0.62 0.01313563088723984 0  0.64 0.01313563088723984 0  0.66 0.01313563088723984 0  0.68 0.01313563088723984 0  0.7 0.01313563088723984 0  0.72 0.01313563088723984 0  0.74 0.01313563088723984 0  0.76 0.01313563088723984 0  0.78 0.01313563088723984 0  0.8 0.01313563088723984 0  0.82 0.01313563088723984 0  0.84 0.01313563088723984 0  0.86 0.01313563088723984 0  0.88 0.01313563088723984 0  0.9 0.01313563088723984 0  0.92 0.01313563088723984 0  0.9399999999999999 0.01313563088723984 0  0.96 0.01313563088723984 0  0.98 0.01313563088723984 0  1 0.01313563088723984 0  0 0.02664639863733726 0  0.02 0.02664639863733726 0  0.04 0.02664639863733726 0  0.06 0.02664639863733726 0  0.08 0.02664639863733726 0  0.1 0.02664639863733726 0  0.12 0.02664639863733726 0  0.14 0.02664639863733726 0  0.16 0.02664639863733726 0  0.18 0.02664639863733726 0  0.2 0.02664639863733726 0  0.22 0.02664639863733726 0  0.24 0.02664639863733726 0  0.26 0.02664639863733726 0  0.28 0.02664639863733726 0  0.3 0.02664639863733726 0  0.32 0.02664639863733726 0  0.34 0.02664639863733726 0  0.36 0.02664639863733726 0  0.38 0.02664639863733726 0  0.4 0.02664639863733726 0  0.42 0.02664639863733726 0  0.44 0.02664639863733726 0  0.46 0.02664639863733726 0  0.48 0.02664639863733726 0  0.5 0.02664639863733726 0  0.52 0.02664639863733726 0  0.54 0.02664639863733726 0  0.5600000000000001 0.02664639863733726 0  0.58 0.02664639863733726 0  0.6 0.02664639863733726 0  0.62 0.02664639863733726 0  0.64 0.02664639863733726 0  0.66 0.02664639863733726 0  0.68 0.02664639863733726 0  0.7 0.02664639863733726 0  0.72 0.02664639863733726 0  0.74 0.02664639863733726 0  0.76 0.02664639863733726 0  0.78 0.02664639863733726 0  0.8 0.02664639863733726 0  0.82 0.02664639863733726 0  0.84 0.02664639863733726 0  0.86 0.02664639863733726 0  0.88 0.02664639863733726 0  0.9 0.02664639863733726 0  0.92 0.02664639863733726 0  0.9399999999999999 0.02664639863733726 0  0.96 0.02664639863733726 0  0.98 0.02664639863733726 0  1 0.02664639863733726 0  0 0.04101652939099896 0  0.02 0.04101652939099896 0  0.04 0.04101652939099896 0  0.06 0.04101652939099896 0  0.08 0.04101652939099896 0  0.1 0.04101652939099896 0  0.12 0.04101652939099896 0  0.14 0.04101652939099896 0  0.16 0.04101652939099896 0  0.18 0.04101652939099896 0  0.2 0.04101652939099896 0  0.22 0.04101652939099896 0  0.24 0.04101652939099896 0  0.26 0.04101652939099896 0  0.28 0.04101652939099896 0  0.3 0.04101652939099896 0  0.32 0.04101652939099896 0  0.34 0.04101652939099896 0  0.36 0.04101652939099896 0  0.38 0.04101652939099896 0  0.4 0.04101652939099896 0  0.42 0.04101652939099896 0  0.44 0.04101652939099896 0  0.46 0.04101652939099896 0  0.48 0.04101652939099896 0  0.5 0.04101652939099896 0  0.52 0.04101652939099896 0  0.54 0.04101652939099896 0  0.5600000000000001 0.04101652939099896 0  0.58 0.04101652939099896 0  0.6 0.04101652939099896 0  0.62 0.04101652939099896 0  0.64 0.04101652939099896 0  0.66 0.04101652939099896 0  0.68 0.04101652939099896 0  0.7 0.04101652939099896 0  0.72 0.04101652939099896 0  0.74 0.04101652939099896 0  0.76 0.04101652939099896 0  0.78 0.04101652939099896 0  0.8 0.04101652939099896 0  0.82 0.04101652939099896 0  0.84 0.04101652939099896 0  0.86 0.04101652939099896 0  0.88 0.04101652939099896 0  0.9 0.04101652939099896 0  0.92 0.04101652939099896 0  0.9399999999999999 0.04101652939099896 0  0.96 0.04101652939099896 0  0.98 0.04101652939099896 0  1 0.04101652939099896 0  0 0.05705811164099547 0  0.02 0.05705811164099547 0  0.04 0.05705811164099547 0  0.06 0.05705811164099547 0  0.08 0.05705811164099547 0  0.1 0.05705811164099547 0  0.12 0.05705811164099547 0  0.14 0.05705811164099547 0  0.16 0.05705811164099547 0  0.18 0.05705811164099547 0  0.2 0.05705811164099547 0  0.22 0.05705811164099547 0  0.24 0.05705811164099547 0  0.26 0.05705811164099547 0  0.28 0.05705811164099547 0  0.3 0.05705811164099547 0  0.32 0.05705811164099547 0  0.34 0.05705811164099547 0  0.36 0.05705811164099547 0  0.38 0.05705811164099547 0  0.4 0.05705811164099547 0  0.42 0.05705811164099547 0  0.44 0.05705811164099547 0  0.46 0.05705811164099547 0  0.48 0.05705811164099547 0  0.5 0.05705811164099547 0  0.52 0.05705811164099547 0  0.54 0.05705811164099547 0  0.5600000000000001 0.05705811164099547 0  0.58 0.05705811164099547 0  0.6 0.05705811164099547 0  0.62 0.05705811164099547 0  0.64 0.05705811164099547 0  0.66 0.05705811164099547 0  0.68 0.05705811164099547 0  0.7 0.05705811164099547 0  0.72 0.05705811164099547 0  0.74 0.05705811164099547 0  0.76 0.05705811164099547 0  0.78 0.05705811164099547 0  0.8 0.05705811164099547 0  0.82 0.05705811164099547 0  0.84 0.05705811164099547 0  0.86 0.05705811164099547 0  0.88 0.05705811164099547 0  0.9 0.05705811164099547 0  0.92 0.05705811164099547 0  0.9399999999999999 0.05705811164099547 0  0.96 0.05705811164099547 0  0.98 0.05705811164099547 0  1 0.05705811164099547 0  0 0.07667714377545 0  0.02 0.07667714377545 0  0.04 0.07667714377545 0  0.06 0.07667714377545 0  0.08 0.07667714377545 0  0.1 0.07667714377545 0  0.12 0.07667714377545 0  0.14 0.07667714377545 0  0.16 0.07667714377545 0  0.18 0.07667714377545 0  0.2 0.07667714377545 0  0.22 0.07667714377545 0  0.24 0.07667714377545 0  0.26 0.07667714377545 0  0.28 0.07667714377545 0  0.3 0.07667714377545 0  0.32 0.07667714377545 0  0.34 0.07667714377545 0  0.36 0.07667714377545 0  0.38 0.07667714377545 0  0.4 0.07667714377545 0  0.42 0.07667714377545 0  0.44 0.07667714377545 0  0.46 0.07667714377545 0  0.48 0.07667714377545 0  0.5 0.07667714377545 0  0.52 0.07667714377545 0  0.54 0.07667714377545 0  0.5600000000000001 0.07667714377545 0  0.58 0.07667714377545 0  0.6 0.07667714377545 0  0.62 0.07667714377545 0  0.64 0.07667714377545 0  0.66 0.07667714377545 0  0.68 0.07667714377545 0  0.7 0.07667714377545 0  0.72 0.07667714377545 0  0.74 0.07667714377545 0  0.76 0.07667714377545 0  0.78 0.07667714377545 0  0.8 0.07667714377545 0  0.82 0.07667714377545 0  0.84 0.07667714377545 0  0.86 0.07667714377545 0  0.88 0.07667714377545 0  0.9 0.07667714377545 0  0.92 0.07667714377545 0  0.9399999999999999 0.07667714377545 0  0.96 0.07667714377545 0  0.98 0.07667714377545 0  1 0.07667714377545 0  0 0.1098730133816912 0  0.02 0.1098730133816912 0  0.04 0.1098730133816912 0  0.06 0.1098730133816912 0  0.08 0.1098730133816912 0  0.1 0.1098730133816912 0  0.12 0.1098730133816912 0  0.14 0.1098730133816912 0  0.16 0.1098730133816912 0  0.18 0.1098730133816912 0  0.2 0.1098730133816912 0  0.22 0.1098730133816912 0  0.24 0.1098730133816912 0  0.26 0.1098730133816912 0  0.28 0.1098730133816912 0  0.3 0.1098730133816912 0  0.32 0.1098730133816912 0  0.34 0.1098730133816912 0  0.36 0.1098730133816912 0  0.38 0.1098730133816912 0  0.4 0.1098730133816912 0  0.42 0.1098730133816912 0  0.44 0.1098730133816912 0  0.46 0.1098730133816912 0  0.48 0.1098730133816912 0  0.5 0.1098730133816912 0  0.52 0.1098730133816912 0  0.54 0.1098730133816912 0  0.5600000000000001 0.1098730133816912 0  0.58 0.1098730133816912 0  0.6 0.1098730133816912 0  0.62 0.1098730133816912 0  0.64 0.1098730133816912 0  0.66 0.1098730133816912 0  0.68 0.1098730133816912 0  0.7 0.1098730133816912 0  0.72 0.1098730133816912 0  0.74 0.1098730133816912 0  0.76 0.1098730133816912 0  0.78 0.1098730133816912 0  0.8 0.1098730133816912 0  0.82 0.1098730133816912 0  0.84 0.1098730133816912 0  0.86 0.1098730133816912 0  0.88 0.1098730133816912 0  0.9 0.1098730133816912 0  0.92 0.1098730133816912 0  0.9399999999999999 0.1098730133816912 0  0.96 0.1098730133816912 0  0.98 0.1098730133816912 0  1 0.1098730133816912 0  0 0.1603283563168221 0  0.02 0.1603283563168221 0  0.04 0.1603283563168221 0  0.06 0.1603283563168221 0  0.08 0.1603283563168221 0  0.1 0.1603283563168221 0  0.12 0.1603283563168221 0  0.14 0.1603283563168221 0  0.16 0.1603283563168221 0  0.18 0.1603283563168221 0  0.2 0.1603283563168221 0  0.22 0.1603283563168221 0  0.24 0.1603283563168221 0  0.26 0.1603283563168221 0  0.28 0.1603283563168221 0  0.3 0.1603283563168221 0  0.32 0.1603283563168221 0  0.34 0.1603283563168221 0  0.36 0.1603283563168221 0  0.38 0.1603283563168221 0  0.4 0.1603283563168221 0  0.42 0.1603283563168221 0  0.44 0.1603283563168221 0  0.46 0.1603283563168221 0  0.48 0.1603283563168221 0  0.5 0.1603283563168221 0  0.52 0.1603283563168221 0  0.54 0.1603283563168221 0  0.5600000000000001 0.1603283563168221 0  0.58 0.1603283563168221 0 
[...]
<PointData  Vectors="u_paraw"> 
<DataArray  type="Float64"  Name="u_paraw"  NumberOfComponents="3" format="ascii">1.0703489738091764e-05 -3.4536120023986785e-05 0.0000000000000000e+00  1.0703489733023868e-05 -3.4536120023531420e-05 0.0000000000000000e+00  1.0703489738355886e-05 -3.4536120031185887e-05 0.0000000000000000e+00  1.0703489738553981e-05 -3.4536120028258535e-05 0.0000000000000000e+00  1.0703489737877162e-05 -3.4536120028312745e-05 0.0000000000000000e+00  1.0703489732082921e-05 -3.4536120038677738e-05 0.0000000000000000e+00  1.0703489744067587e-05 -3.4536120022046029e-05 0.0000000000000000e+00  1.0703489730168015e-05 -3.4536120022696598e-05 0.0000000000000000e+00  1.0703489729738811e-05 -3.4536120022566494e-05 0.0000000000000000e+00  1.0703489739049215e-05 -3.4536120019639100e-05 0.0000000000000000e+00  1.0703489738834612e-05 -3.4536120033527777e-05 0.0000000000000000e+00  1.0703489741426338e-05 -3.4536120021840078e-05 0.0000000000000000e+00  1.0703489731389592e-05 -3.4536120032356792e-05 0.0000000000000000e+00  1.0703489749118976e-05 -3.4536120039696840e-05 0.0000000000000000e+00  1.0703489740914596e-05 -3.4536120021991921e-05 0.0000000000000000e+00  1.0703489732710216e-05 -3.4536120036303288e-05 0.0000000000000000e+00  1.0703489744760915e-05 -3.4536120040694306e-05 0.0000000000000000e+00  1.0703489745239641e-05 -3.4536120028399555e-05 0.0000000000000000e+00  1.0703489743060610e-05 -3.4536120035717818e-05 0.0000000000000000e+00  1.0703489736391457e-05 -3.4536120039382422e-05 0.0000000000000000e+00  1.0703489745899953e-05 -3.4536120031673846e-05 0.0000000000000000e+00  1.0703489747369148e-05 -3.4536120043328918e-05 0.0000000000000000e+00  1.0703489741971095e-05 -3.4536120022403816e-05 0.0000000000000000e+00  1.0703489728533743e-05 -3.4536120031077535e-05 0.0000000000000000e+00  1.0703489749366593e-05 -3.4536120032909735e-05 0.0000000000000000e+00  1.0703489741525385e-05 -3.4536120029667970e-05 0.0000000000000000e+00  1.0703489747253593e-05 -3.4536120027499566e-05 0.0000000000000000e+00  1.0703489731620702e-05 -3.4536120023216967e-05 0.0000000000000000e+00  1.0703489731092451e-05 -3.4536120036195057e-05 0.0000000000000000e+00  1.0703489736886692e-05 -3.4536120022913391e-05 0.0000000000000000e+00  1.0703489729309610e-05 -3.4536120036986335e-05 0.0000000000000000e+00  1.0703489731521655e-05 -3.4536120021937609e-05 0.0000000000000000e+00  1.0703489731554670e-05 -3.4536120032074899e-05 0.0000000000000000e+00  1.0703489737646050e-05 -3.4536120038005485e-05 0.0000000000000000e+00  1.0703489745421227e-05 -3.4536120042895427e-05 0.0000000000000000e+00  1.0703489747600258e-05 -3.4536120019563206e-05 0.0000000000000000e+00  1.0703489726899469e-05 -3.4536120034275830e-05 0.0000000000000000e+00  1.0703489744826947e-05 -3.4536120018240479e-05 0.0000000000000000e+00  1.0703489738157792e-05 -3.4536120022588130e-05 0.0000000000000000e+00  1.0703489730432140e-05 -3.4536120042700080e-05 0.0000000000000000e+00  1.0703489734460044e-05 -3.4536120032172667e-05 0.0000000000000000e+00  1.0703489741806017e-05 -3.4536120018880159e-05 0.0000000000000000e+00  1.0703489729755320e-05 -3.4536120033408468e-05 0.0000000000000000e+00  1.0703489735500036e-05 -3.4536120034145725e-05 0.0000000000000000e+00  1.0703489729672780e-05 -3.4536120036693600e-05 0.0000000000000000e+00  1.0703489738124776e-05 -3.4536120028974081e-05 0.0000000000000000e+00  1.0703489740155236e-05 -3.4536120031608882e-05 0.0000000000000000e+00  1.0703489751248483e-05 -3.4536120040217257e-05 0.0000000000000000e+00  1.0703489740386346e-05 -3.4536120014944505e-05 0.0000000000000000e+00  1.0703489730729281e-05 -3.4536120026675572e-05 0.0000000000000000e+00  1.0703489738091761e-05 -8.0463627167530213e-15 0.0000000000000000e+00  -8.3219794341625683e-06 -3.2338892577096241e-04 0.0000000000000000e+00  -8.3219794354786237e-06 -3.2338892577692553e-04 0.0000000000000000e+00  -8.3219794258810510e-06 -3.2338892576638719e-04 0.0000000000000000e+00  -8.3219794281921736e-06 -3.2338892578132739e-04 0.0000000000000000e+00  -8.3219794352218339e-06 -3.2338892577770615e-04 0.0000000000000000e+00  -8.3219794265551300e-06 -3.2338892576369848e-04 0.0000000000000000e+00  -8.3219794278711854e-06 -3.2338892578208611e-04 0.0000000000000000e+00  -8.3219794315625583e-06 -3.2338892578193476e-04 0.0000000000000000e+00  -8.3219794382070321e-06 -3.2338892578234675e-04 0.0000000000000000e+00  -8.3219794319798457e-06 -3.2338892578694334e-04 0.0000000000000000e+00  -8.3219794383033295e-06 -3.2338892577516934e-04 0.0000000000000000e+00  -8.3219794315625583e-06 -3.2338892579314541e-04 0.0000000000000000e+00  -8.3219794225748662e-06 -3.2338892578219453e-04 0.0000000000000000e+00  -8.3219794315625583e-06 -3.2338892578230295e-04 0.0000000000000000e+00  -8.3219794304390979e-06 -3.2338892576983549e-04 0.0000000000000000e+00  -8.3219794390095060e-06 -3.2338892578397262e-04 0.0000000000000000e+00  -8.3219794235057334e-06 -3.2338892577538574e-04 0.0000000000000000e+00  -8.3219794283847669e-06 -3.2338892578410359e-04 0.0000000000000000e+00  -8.3219794286094593e-06 -3.2338892578356063e-04 0.0000000000000000e+00  -8.3219794236341301e-06 -3.2338892578783238e-04 0.0000000000000000e+00  -8.3219794213551066e-06 -3.2338892576508669e-04 0.0000000000000000e+00  -8.3219794280958778e-06 -3.2338892578457978e-04 0.0000000000000000e+00  -8.3219794220933822e-06 -3.2338892578455809e-04 0.0000000000000000e+00  -8.3219794289946458e-06 -3.2338892577486619e-04 0.0000000000000000e+00  -8.3219794205526344e-06 -3.2338892577111399e-04 0.0000000000000000e+00  -8.3219794284168660e-06 -3.2338892578143559e-04 0.0000000000000000e+00  -8.3219794238267233e-06 -3.2338892577813962e-04 0.0000000000000000e+00  -8.3219794327181197e-06 -3.2338892577226324e-04 0.0000000000000000e+00  -8.3219794342267683e-06 -3.2338892578171922e-04 0.0000000000000000e+00  -8.3219794278069871e-06 -3.2338892577028999e-04 0.0000000000000000e+00  -8.3219794346119549e-06 -3.2338892579065131e-04 0.0000000000000000e+00  -8.3219794281921736e-06 -3.2338892576747107e-04 0.0000000000000000e+00  -8.3219794401008690e-06 -3.2338892577889856e-04 0.0000000000000000e+00  -8.3219794319156474e-06 -3.2338892577907203e-04 0.0000000000000000e+00  -8.3219794165081723e-06 -3.2338892577495380e-04 0.0000000000000000e+00  -8.3219794254316678e-06 -3.2338892577777099e-04 0.0000000000000000e+00  -8.3219794250464813e-06 -3.2338892577213314e-04 0.0000000000000000e+00  -8.3219794267798224e-06 -3.2338892577581942e-04 0.0000000000000000e+00  -8.3219794355749229e-06 -3.2338892578737702e-04 0.0000000000000000e+00  -8.3219794372761649e-06 -3.2338892577941897e-04 0.0000000000000000e+00  -8.3219794203600411e-06 -3.2338892577094225e-04 0.0000000000000000e+00  -8.3219794237946242e-06 -3.2338892578267158e-04 0.0000000000000000e+00  -8.3219794294761298e-06 -3.2338892577148261e-04 0.0000000000000000e+00  -8.3219794370835716e-06 -3.2338892577113567e-04 0.0000000000000000e+00  -8.3219794378218455e-06 -3.2338892579513991e-04 0.0000000000000000e+00  -8.3219794169254580e-06 -3.2338892576747107e-04 0.0000000000000000e+00  -8.3219794228637553e-06 -3.2338892576378651e-04 0.0000000000000000e+00  -8.3219794224464696e-06 -3.2338892577755415e-04 0.0000000000000000e+00  -8.3219794213230074e-06 -3.2338892577369439e-04 0.0000000000000000e+00  -8.3219794344193616e-06 -3.2338892577078872e-04 0.0000000000000000e+00  -8.3219794341625700e-06 -1.0637712053642446e-04 0.0000000000000000e+00  2.9009986726887517e-05 -4.3050831123919893e-04 0.0000000000000000e+00  2.9009986718497663e-05 -4.3050831126643409e-04 0.0000000000000000e+00  2.9009986735337728e-05 -4.3050831125043132e-04 0.0000000000000000e+00  2.9009986727008233e-05 -4.3050831124006618e-04 0.0000000000000000e+00  2.9009986724714603e-05 -4.3050831125658942e-04 0.0000000000000000e+00  2.9009986727732538e-05 -4.3050831125325046e-04 0.0000000000000000e+00  2.9009986720791292e-05 -4.3050831125476769e-04 0.0000000000000000e+00  2.9009986726947873e-05 -4.3050831124739577e-04 0.0000000000000000e+00  2.9009986720912008e-05 -4.3050831125992915e-04 0.0000000000000000e+00  2.9009986728155048e-05 -4.3050831125199214e-04 0.0000000000000000e+00  2.9009986724292093e-05 -4.3050831124375285e-04 0.0000000000000000e+00  2.9009986721636313e-05 -4.3050831125810769e-04 0.0000000000000000e+00  2.9009986736786334e-05 -4.3050831125394370e-04 0.0000000000000000e+00  2.9009986740649289e-05 -4.3050831125988513e-04 0.0000000000000000e+00  2.9009986752238150e-05 -4.3050831124466407e-04 0.0000000000000000e+00  2.9009986724654247e-05 -4.3050831124631092e-04 0.0000000000000000e+00  2.9009986737148488e-05 -4.3050831124743849e-04 0.0000000000000000e+00  2.9009986720851652e-05 -4.3050831125633008e-04 0.0000000000000000e+00  2.9009986732621588e-05 -4.3050831125090793e-04 0.0000000000000000e+00  2.9009986730750469e-05 -4.3050831125303297e-04 0.0000000000000000e+00  2.9009986737631358e-05 -4.3050831124952129e-04 0.0000000000000000e+00  2.9009986725137114e-05 -4.3050831125337991e-04 0.0000000000000000e+00  2.9009986727310028e-05 -4.3050831125884429e-04 0.0000000000000000e+00  2.9009986732923383e-05 -4.3050831124991161e-04 0.0000000000000000e+00  2.9009986731776568e-05 -4.3050831125914787e-04 0.0000000000000000e+00  2.9009986732863023e-05 -4.3050831124856606e-04 0.0000000000000000e+00  2.9009986732681948e-05 -4.3050831124513998e-04 0.0000000000000000e+00  2.9009986734553064e-05 -4.3050831125615547e-04 0.0000000000000000e+00  2.9009986717471567e-05 -4.3050831125312209e-04 0.0000000000000000e+00  2.9009986723145278e-05 -4.3050831125671926e-04 0.0000000000000000e+00  2.9009986719161608e-05 -4.3050831125880092e-04 0.0000000000000000e+00  2.9009986735820598e-05 -4.3050831123876487e-04 0.0000000000000000e+00  2.9009986725076757e-05 -4.3050831125294623e-04 0.0000000000000000e+00  2.9009986726102853e-05 -4.3050831123711688e-04 0.0000000000000000e+00  2.9009986721515597e-05 -4.3050831125117053e-04 0.0000000000000000e+00  2.9009986728637918e-05 -4.3050831124158379e-04 0.0000000000000000e+00  2.9009986727672178e-05 -4.3050831125563505e-04 0.0000000000000000e+00  2.9009986726766798e-05 -4.3050831126144638e-04 0.0000000000000000e+00  2.9009986733104458e-05 -4.3050831125433401e-04 0.0000000000000000e+00  2.9009986737631358e-05 -4.3050831123334386e-04 0.0000000000000000e+00  2.9009986726344288e-05 -4.3050831125108379e-04 0.0000000000000000e+00  2.9009986727853253e-05 -4.3050831124691807e-04 0.0000000000000000e+00  2.9009986723809223e-05 -4.3050831124500987e-04 0.0000000000000000e+00  2.9009986726706439e-05 -4.3050831124934668e-04 0.0000000000000000e+00  2.9009986711194267e-05 -4.3050831126240048e-04 0.0000000000000000e+00  2.9009986737269204e-05 -4.3050831125285950e-04 0.0000000000000000e+00  2.9009986734432348e-05 -4.3050831124193312e-04 0.0000000000000000e+00  2.9009986726646082e-05 -4.3050831124869616e-04 0.0000000000000000e+00  2.9009986733587328e-05 -4.3050831125468096e-04 0.0000000000000000e+00  2.9009986735699879e-05 -4.3050831124318841e-04 0.0000000000000000e+00  2.9009986726887517e-05 -4.9457255425507313e-04 0.0000000000000000e+00  -8.9153255728942584e-05 -8.5835957790861631e-04 0.0000000000000000e+00  -8.9153255750462276e-05 -8.5835957791642256e-04 0.0000000000000000e+00  -8.9153255744730899e-05 -8.5835957792596365e-04 0.0000000000000000e+00  -8.9153255736187901e-05 -8.5835957791833065e-04 0.0000000000000000e+00  -8.9153255737269298e-05 -8.5835957792379503e-04 0.0000000000000000e+00  -8.9153255708936818e-05 -8.5835957790193805e-04 0.0000000000000000e+00  -8.9153255733808850e-05 -8.5835957790367169e-04 0.0000000000000000e+00  -8.9153255741486709e-05 -8.5835957790133090e-04 0.0000000000000000e+00  -8.9153255735971616e-05 -8.5835957790037680e-04 0.0000000000000000e+00  -8.9153255738891386e-05 -8.5835957791364635e-04 0.0000000000000000e+00  -8.9153255744082058e-05 -8.5835957794166322e-04 0.0000000000000000e+00  -8.9153255725049567e-05 -8.5835957790480035e-04 0.0000000000000000e+00  -8.9153255745271591e-05 -8.5835957791928420e-04 0.0000000000000000e+00  -8.9153255727320496e-05 -8.5835957791373309e-04 0.0000000000000000e+00  -8.9153255726887926e-05 -8.5835957791841901e-04 0.0000000000000000e+00  -8.9153255744730899e-05 -8.5835957794010089e-04 0.0000000000000000e+00  -8.9153255737918139e-05 -8.5835957792804456e-04 0.0000000000000000e+00  -8.9153255735214640e-05 -8.5835957791113317e-04 0.0000000000000000e+00  -8.9153255729267005e-05 -8.5835957790991670e-04 0.0000000000000000e+00  -8.9153255740837895e-05 -8.5835957791772295e-04 0.0000000000000000e+00  -8.9153255725590258e-05 -8.5835957792162825e-04 0.0000000000000000e+00  -8.9153255733916985e-05 -8.5835957790861566e-04 0.0000000000000000e+00  -8.9153255742027427e-05 -8.5835957792119240e-04 0.0000000000000000e+00  -8.9153255736512308e-05 -8.5835957791625061e-04 0.0000000000000000e+00  -8.9153255741811143e-05 -8.5835957792336080e-04 0.0000000000000000e+00  -8.9153255725373987e-05 -8.5835957792075872e-04 0.0000000000000000e+00  -8.9153255735647209e-05 -8.5835957790870239e-04 0.0000000000000000e+00  -8.9153255751868080e-05 -8.5835957792630983e-04 0.0000000000000000e+00  -8.9153255740946031e-05 -8.5835957793013089e-04 0.0000000000000000e+00  -8.9153255730564673e-05 -8.5835957791295246e-04 0.0000000000000000e+00  -8.9153255750570412e-05 -8.5835957792188629e-04 0.0000000000000000e+00  -8.9153255727753052e-05 -8.5835957792917213e-04 0.0000000000000000e+00  -8.9153255733592565e-05 -8.5835957790401864e-04 0.0000000000000000e+00  -8.9153255742892539e-05 -8.5835957792179955e-04 0.0000000000000000e+00  -8.9153255731429785e-05 -8.5835957791217650e-04 0.0000000000000000e+00  -8.9153255735430938e-05 -8.5835957791295246e-04 0.0000000000000000e+00  -8.9153255751543673e-05 -8.5835957791937094e-04 0.0000000000000000e+00  -8.9153255737809989e-05 -8.5835957793238137e-04 0.0000000000000000e+00  -8.9153255724292590e-05 -8.5835957790254412e-04 0.0000000000000000e+00  -8.9153255736079765e-05 -8.5835957793090685e-04 0.0000000000000000e+00  -8.9153255729158856e-05 -8.5835957789673746e-04 0.0000000000000000e+00  -8.9153255747542520e-05 -8.5835957794729999e-04 0.0000000000000000e+00  -8.9153255730564673e-05 -8.5835957791260552e-04 0.0000000000000000e+00  -8.9153255745271591e-05 -8.5835957793515692e-04 0.0000000000000000e+00  -8.9153255734890233e-05 -8.5835957791416677e-04 0.0000000000000000e+00  -8.9153255729591412e-05 -8.5835957793298852e-04 0.0000000000000000e+00  -8.9153255716722853e-05 -8.5835957792839616e-04 0.0000000000000000e+00  -8.9153255728293744e-05 -8.5835957791191163e-04 0.0000000000000000e+00  -8.9153255736728606e-05 -8.5835957791564129e-04 0.0000000000000000e+00  -8.9153255739323942e-05 -8.5835957792648331e-04 0.0000000000000000e+00  -8.9153255728942584e-05 -4.7856438928302688e-04 0.0000000000000000e+00  2.3561215137081861e-04 1.6077064538674510e-04 0.0000000000000000e+00  2.3561215137019967e-04 1.6077064537052543e-04 0.0000000000000000e+00  2.3561215135826293e-04 1.6077064536523453e-04 0.0000000000000000e+00  2.3561215136383339e-04 1.6077064535760169e-04 0.0000000000000000e+00  2.3561215137709644e-04 1.6077064539299005e-04 0.0000000000000000e+00  2.3561215135782079e-04 1.6077064536549482e-04 0.0000000000000000e+00  2.3561215135384187e-04 1.6077064538266836e-04 0.0000000000000000e+00  2.3561215134897874e-04 1.6077064537200003e-04 0.0000000000000000e+00  2.3561215134455772e-04 1.6077064538206143e-04 0.0000000000000000e+00  2.3561215134110933e-04 1.6077064534398403e-04 0.0000000000000000e+00  2.3561215133792619e-04 1.6077064537095920e-04 0.0000000000000000e+00  2.3561215135985445e-04 1.6077064537295413e-04 0.0000000000000000e+00  2.3561215133465464e-04 1.6077064535890265e-04 0.0000000000000000e+00  2.3561215134057880e-04 1.6077064534728000e-04 0.0000000000000000e+00  2.3561215136029656e-04 1.6077064535222440e-04 0.0000000000000000e+00  2.3561215135667132e-04 1.6077064537000488e-04 0.0000000000000000e+00  2.3561215136843125e-04 1.6077064537971933e-04 0.0000000000000000e+00  2.3561215136109234e-04 1.6077064537434212e-04 0.0000000000000000e+00  2.3561215136294917e-04 1.6077064536957120e-04 0.0000000000000000e+00  2.3561215136321445e-04 1.6077064538197447e-04 0.0000000000000000e+00  2.3561215136622073e-04 1.6077064537390844e-04 0.0000000000000000e+00  2.3561215135782079e-04 1.6077064537009162e-04 0.0000000000000000e+00  2.3561215135260399e-04 1.6077064535751487e-04 0.0000000000000000e+00  2.3561215137028808e-04 1.6077064538535762e-04 0.0000000000000000e+00  2.3561215134623771e-04 1.6077064537538252e-04 0.0000000000000000e+00  2.3561215135534501e-04 1.6077064536185168e-04 0.0000000000000000e+00  2.3561215134889032e-04 1.6077064535170355e-04 0.0000000000000000e+00  2.3561215138682271e-04 1.6077064537581620e-04 0.0000000000000000e+00  2.3561215138195957e-04 1.6077064538362335e-04 0.0000000000000000e+00  2.3561215137152597e-04 1.6077064537156613e-04 0.0000000000000000e+00  2.3561215136577864e-04 1.6077064538535718e-04 0.0000000000000000e+00  2.3561215135640607e-04 1.6077064535309133e-04 0.0000000000000000e+00  2.3561215136020815e-04 1.6077064535153008e-04 0.0000000000000000e+00  2.3561215137877644e-04 1.6077064539238281e-04 0.0000000000000000e+00  2.3561215136542495e-04 1.6077064536974557e-04 0.0000000000000000e+00  2.3561215136745861e-04 1.6077064537104571e-04 0.0000000000000000e+00  2.3561215136241865e-04 1.6077064537546926e-04 0.0000000000000000e+00  2.3561215135596396e-04 1.6077064535916286e-04 0.0000000000000000e+00  2.3561215136622073e-04 1.6077064535959654e-04 0.0000000000000000e+00  2.3561215135454923e-04 1.6077064535985675e-04 0.0000000000000000e+00  2.3561215135923551e-04 1.6077064535361264e-04 0.0000000000000000e+00  2.3561215136029656e-04 1.6077064536402008e-04 0.0000000000000000e+00  2.3561215136772389e-04 1.6077064537425495e-04 0.0000000000000000e+00  2.3561215136171128e-04 1.6077064538032649e-04 0.0000000000000000e+00  2.3561215135905868e-04 1.6077064536020369e-04 0.0000000000000000e+00  2.3561215137966063e-04 1.6077064538206121e-04 0.0000000000000000e+00  2.3561215135994290e-04 1.6077064535595452e-04 0.0000000000000000e+00  2.3561215137470911e-04 1.6077064537451516e-04 0.0000000000000000e+00  2.3561215137806908e-04 1.6077064539168892e-04 0.0000000000000000e+00  2.3561215135737870e-04 1.6077064536818342e-04 0.0000000000000000e+00  2.3561215137081861e-04 -8.0590007346161387e-04 0.0000000000000000e+00  -4.1907511296165970e-04 -2.2755259826813881e-03 0.0000000000000000e+00  -4.1907511296071905e-04 -2.2755259826409691e-03 0.0000000000000000e+00  -4.1907511298423480e-04 -2.2755259826642148e-03 0.0000000000000000e+00  -4.1907511296416806e-04 -2.2755259826194581e-03 0.0000000000000000e+00  -4.1907511299782169e-04 -2.2755259826562342e-03 0.0000000000000000e+00  -4.1907511300471966e-04 -2.2755259826675116e-03 0.0000000000000000e+00  -4.1907511298695213e-04 -2.2755259826525895e-03 0.0000000000000000e+00  -4.1907511298339871e-04 -2.2755259826742771e-03 0.0000000000000000e+00  -4.1907511297765038e-04 -2.2755259826708076e-03 0.0000000000000000e+00  -4.1907511296573571e-04 -2.2755259826806921e-03 0.0000000000000000e+00  -4.1907511296092808e-04 -2.2755259826591850e-03 0.0000000000000000e+00  -4.1907511296928923e-04 -2.2755259826992571e-03 0.0000000000000000e+00  -4.1907511295361205e-04 -2.2755259826510283e-03 0.0000000000000000e+00  -4.1907511295967388e-04 -2.2755259826371505e-03 0.0000000000000000e+00  -4.1907511296040550e-04 -2.2755259826512083e-03 0.0000000000000000e+00  -4.1907511296479505e-04 -2.2755259826612632e-03 0.0000000000000000e+00  -4.1907511297148398e-04 -2.2755259826303851e-03 0.0000000000000000e+00  -4.1907511298496636e-04 -2.2755259826569329e-03 0.0000000000000000e+00  -4.1907511298214445e-04 -2.2755259826829472e-03 0.0000000000000000e+00  -4.1907511296186868e-04 -2.2755259826182420e-03 0.0000000000000000e+00  -4.1907511298674310e-04 -2.2755259826572798e-03 0.0000000000000000e+00  -4.1907511298569798e-04 -2.2755259826669877e-03 0.0000000000000000e+00  -4.1907511297535101e-04 -2.2755259826258748e-03 0.0000000000000000e+00  -4.1907511297817291e-04 -2.2755259826361162e-03 0.0000000000000000e+00  -