<?xml version="1.0"?>
<VTKFile type="UnstructuredGrid"  version="0.1"  >
<UnstructuredGrid>
<Piece  NumberOfPoints="2601" NumberOfCells="5000">
<Points>
<DataArray  type="Float64"  NumberOfComponents="3"  format="ascii">0 0 0  0.02 0 0  0.04 0 0  0.06 0 0  0.08 0 0  0.1 0 0  0.12 0 0  0.14 0 0  0.16 0 0  0.18 0 0  0.2 0 0  0.22 0 0  0.24 0 0  0.26 0 0  0.28 0 0  0.3 0 0  0.32 0 0  0.34 0 0  0.36 0 0  0.38 0 0  0.4 0 0  0.42 0 0  0.44 0 0  0.46 0 0  0.48 0 0  0.5 0 0  0.52 0 0  0.54 0 0  0.5600000000000001 0 0  0.58 0 0  0.6 0 0  0.62 0 0  0.64 0 0  0.66 0 0  0.68 0 0  0.7 0 0  0.72 0 0  0.74 0 0  0.76 0 0  0.78 0 0  0.8 0 0  0.82 0 0  0.84 0 0  0.86 0 0  0.88 0 0  0.9 0 0  0.92 0 0  0.9399999999999999 0 0  0.96 0 0  0.98 0 0  1 0 0  0 0.01313563088723984 0  0.02 0.01313563088723984 0  0.04 0.01313563088723984 0  0.06 0.01313563088723984 0  0.08 0.01313563088723984 0  0.1 0.01313563088723984 0  0.12 0.01313563088723984 0  0.14 0.01313563088723984 0  0.16 0.01313563088723984 0  0.18 0.01313563088723984 0  0.2 0.01313563088723984 0  0.22 0.01313563088723984 0  0.24 0.01313563088723984 0  0.26 0.01313563088723984 0  0.28 0.01313563088723984 0  0.3 0.01313563088723984 0  0.32 0.01313563088723984 0  0.34 0.01313563088723984 0  0.36 0.01313563088723984 0  0.38 0.01313563088723984 0  0.4 0.01313563088723984 0  0.42 0.01313563088723984 0  0.44 0.01313563088723984 0  0.46 0.01313563088723984 0  0.48 0.01313563088723984 0  0.5 0.01313563088723984 0  0.52 0.01313563088723984 0  0.54 0.01313563088723984 0  0.5600000000000001 0.01313563088723984 0  0.58 0.01313563088723984 0  0.6 0.01313563088723984 0  0.62 0.01313563088723984 0  0.64 0.01313563088723984 0  0.66 0.01313563088723984 0  0.68 0.01313563088723984 0  0.7 0.01313563088723984 0  0.72 0.01313563088723984 0  0.74 0.01313563088723984 0  0.76 0.01313563088723984 0  0.78 0.01313563088723984 0  0.8 0.01313563088723984 0  0.82 0.01313563088723984 0  0.84 0.01313563088723984 0  0.86 0.01313563088723984 0  0.88 0.01313563088723984 0  0.9 0.01313563088723984 0  0.92 0.01313563088723984 0  0.9399999999999999 0.01313563088723984 0  0.96 0.01313563088723984 0  0.98 0.01313563088723984 0  1 0.01313563088723984 0  0 0.02664639863733726 0  0.02 0.02664639863733726 0  0.04 0.02664639863733726 0  0.06 0.02664639863733726 0  0.08 0.02664639863733726 0  0.1 0.02664639863733726 0  0.12 0.02664639863733726 0  0.14 0.02664639863733726 0  0.16 0.02664639863733726 0  0.18 0.02664639863733726 0  0.2 0.02664639863733726 0  0.22 0.02664639863733726 0  0.24 0.02664639863733726 0  0.26 0.02664639863733726 0  0.28 0.02664639863733726 0  0.3 0.02664639863733726 0  0.32 0.02664639863733726 0  0.34 0.02664639863733726 0  0.36 0.02664639863733726 0  0.38 0.02664639863733726 0  0.4 0.02664639863733726 0  0.42 0.02664639863733726 0  0.44 0.02664639863733726 0  0.46 0.02664639863733726 0  0.48 0.02664639863733726 0  0.5 0.02664639863733726 0  0.52 0.02664639863733726 0  0.54 0.02664639863733726 0  0.5600000000000001 0.02664639863733726 0  0.58 0.02664639863733726 0  0.6 0.02664639863733726 0  0.62 0.02664639863733726 0  0.64 0.02664639863733726 0  0.66 0.02664639863733726 0  0.68 0.02664639863733726 0  0.7 0.02664639863733726 0  0.72 0.02664639863733726 0  0.74 0.02664639863733726 0  0.76 0.02664639863733726 0  0.78 0.02664639863733726 0  0.8 0.02664639863733726 0  0.82 0.02664639863733726 0  0.84 0.02664639863733726 0  0.86 0.02664639863733726 0  0.88 0.02664639863733726 0  0.9 0.02664639863733726 0  0.92 0.02664639863733726 0  0.9399999999999999 0.02664639863733726 0  0.96 0.02664639863733726 0  0.98 0.02664639863733726 0  1 0.02664639863733726 0  0 0.04101652939099896 0  0.02 0.04101652939099896 0  0.04 0.04101652939099896 0  0.06 0.04101652939099896 0  0.08 0.04101652939099896 0  0.1 0.04101652939099896 0  0.12 0.04101652939099896 0  0.14 0.04101652939099896 0  0.16 0.04101652939099896 0  0.18 0.04101652939099896 0  0.2 0.04101652939099896 0  0.22 0.04101652939099896 0  0.24 0.04101652939099896 0  0.26 0.04101652939099896 0  0.28 0.04101652939099896 0  0.3 0.04101652939099896 0  0.32 0.04101652939099896 0  0.34 0.04101652939099896 0  0.36 0.04101652939099896 0  0.38 0.04101652939099896 0  0.4 0.04101652939099896 0  0.42 0.04101652939099896 0  0.44 0.04101652939099896 0  0.46 0.04101652939099896 0  0.48 0.04101652939099896 0  0.5 0.04101652939099896 0  0.52 0.04101652939099896 0  0.54 0.04101652939099896 0  0.5600000000000001 0.04101652939099896 0  0.58 0.04101652939099896 0  0.6 0.04101652939099896 0  0.62 0.04101652939099896 0  0.64 0.04101652939099896 0  0.66 0.04101652939099896 0  0.68 0.04101652939099896 0  0.7 0.04101652939099896 0  0.72 0.04101652939099896 0  0.74 0.04101652939099896 0  0.76 0.04101652939099896 0  0.78 0.04101652939099896 0  0.8 0.04101652939099896 0  0.82 0.04101652939099896 0  0.84 0.04101652939099896 0  0.86 0.04101652939099896 0  0.88 0.04101652939099896 0  0.9 0.04101652939099896 0  0.92 0.04101652939099896 0  0.9399999999999999 0.04101652939099896 0  0.96 0.04101652939099896 0  0.98 0.04101652939099896 0  1 0.04101652939099896 0  0 0.05705811164099547 0  0.02 0.05705811164099547 0  0.04 0.05705811164099547 0  0.06 0.05705811164099547 0  0.08 0.05705811164099547 0  0.1 0.05705811164099547 0  0.12 0.05705811164099547 0  0.14 0.05705811164099547 0  0.16 0.05705811164099547 0  0.18 0.05705811164099547 0  0.2 0.05705811164099547 0  0.22 0.05705811164099547 0  0.24 0.05705811164099547 0  0.26 0.05705811164099547 0  0.28 0.05705811164099547 0  0.3 0.05705811164099547 0  0.32 0.05705811164099547 0  0.34 0.05705811164099547 0  0.36 0.05705811164099547 0  0.38 0.05705811164099547 0  0.4 0.05705811164099547 0  0.42 0.05705811164099547 0  0.44 0.05705811164099547 0  0.46 0.05705811164099547 0  0.48 0.05705811164099547 0  0.5 0.05705811164099547 0  0.52 0.05705811164099547 0  0.54 0.05705811164099547 0  0.5600000000000001 0.05705811164099547 0  0.58 0.05705811164099547 0  0.6 0.05705811164099547 0  0.62 0.05705811164099547 0  0.64 0.05705811164099547 0  0.66 0.05705811164099547 0  0.68 0.05705811164099547 0  0.7 0.05705811164099547 0  0.72 0.05705811164099547 0  0.74 0.05705811164099547 0  0.76 0.05705811164099547 0  0.78 0.05705811164099547 0  0.8 0.05705811164099547 0  0.82 0.05705811164099547 0  0.84 0.05705811164099547 0  0.86 0.05705811164099547 0  0.88 0.05705811164099547 0  0.9 0.05705811164099547 0  0.92 0.05705811164099547 0  0.9399999999999999 0.05705811164099547 0  0.96 0.05705811164099547 0  0.98 0.05705811164099547 0  1 0.05705811164099547 0  0 0.07667714377545 0  0.02 0.07667714377545 0  0.04 0.07667714377545 0  0.06 0.07667714377545 0  0.08 0.07667714377545 0  0.1 0.07667714377545 0  0.12 0.07667714377545 0  0.14 0.07667714377545 0  0.16 0.07667714377545 0  0.18 0.07667714377545 0  0.2 0.07667714377545 0  0.22 0.07667714377545 0  0.24 0.07667714377545 0  0.26 0.07667714377545 0  0.28 0.07667714377545 0  0.3 0.07667714377545 0  0.32 0.07667714377545 0  0.34 0.07667714377545 0  0.36 0.07667714377545 0  0.38 0.07667714377545 0  0.4 0.07667714377545 0  0.42 0.07667714377545 0  0.44 0.07667714377545 0  0.46 0.07667714377545 0  0.48 0.07667714377545 0  0.5 0.07667714377545 0  0.52 0.07667714377545 0  0.54 0.07667714377545 0  0.5600000000000001 0.07667714377545 0  0.58 0.07667714377545 0  0.6 0.07667714377545 0  0.62 0.07667714377545 0  0.64 0.07667714377545 0  0.66 0.07667714377545 0  0.68 0.07667714377545 0  0.7 0.07667714377545 0  0.72 0.07667714377545 0  0.74 0.07667714377545 0  0.76 0.07667714377545 0  0.78 0.07667714377545 0  0.8 0.07667714377545 0  0.82 0.07667714377545 0  0.84 0.07667714377545 0  0.86 0.07667714377545 0  0.88 0.07667714377545 0  0.9 0.07667714377545 0  0.92 0.07667714377545 0  0.9399999999999999 0.07667714377545 0  0.96 0.07667714377545 0  0.98 0.07667714377545 0  1 0.07667714377545 0  0 0.1098730133816912 0  0.02 0.1098730133816912 0  0.04 0.1098730133816912 0  0.06 0.1098730133816912 0  0.08 0.1098730133816912 0  0.1 0.1098730133816912 0  0.12 0.1098730133816912 0  0.14 0.1098730133816912 0  0.16 0.1098730133816912 0  0.18 0.1098730133816912 0  0.2 0.1098730133816912 0  0.22 0.1098730133816912 0  0.24 0.1098730133816912 0  0.26 0.1098730133816912 0  0.28 0.1098730133816912 0  0.3 0.1098730133816912 0  0.32 0.1098730133816912 0  0.34 0.1098730133816912 0  0.36 0.1098730133816912 0  0.38 0.1098730133816912 0  0.4 0.1098730133816912 0  0.42 0.1098730133816912 0  0.44 0.1098730133816912 0  0.46 0.1098730133816912 0  0.48 0.1098730133816912 0  0.5 0.1098730133816912 0  0.52 0.1098730133816912 0  0.54 0.1098730133816912 0  0.5600000000000001 0.1098730133816912 0  0.58 0.1098730133816912 0  0.6 0.1098730133816912 0  0.62 0.1098730133816912 0  0.64 0.1098730133816912 0  0.66 0.1098730133816912 0  0.68 0.1098730133816912 0  0.7 0.1098730133816912 0  0.72 0.1098730133816912 0  0.74 0.1098730133816912 0  0.76 0.1098730133816912 0  0.78 0.1098730133816912 0  0.8 0.1098730133816912 0  0.82 0.1098730133816912 0  0.84 0.1098730133816912 0  0.86 0.1098730133816912 0  0.88 0.1098730133816912 0  0.9 0.1098730133816912 0  0.92 0.1098730133816912 0  0.9399999999999999 0.1098730133816912 0  0.96 0.1098730133816912 0  0.98 0.1098730133816912 0  1 0.1098730133816912 0  0 0.1603283563168221 0  0.02 0.1603283563168221 0  0.04 0.1603283563168221 0  0.06 0.1603283563168221 0  0.08 0.1603283563168221 0  0.1 0.1603283563168221 0  0.12 0.1603283563168221 0  0.14 0.1603283563168221 0  0.16 0.1603283563168221 0  0.18 0.1603283563168221 0  0.2 0.1603283563168221 0  0.22 0.1603283563168221 0  0.24 0.1603283563168221 0  0.26 0.1603283563168221 0  0.28 0.1603283563168221 0  0.3 0.1603283563168221 0  0.32 0.1603283563168221 0  0.34 0.1603283563168221 0  0.36 0.1603283563168221 0  0.38 0.1603283563168221 0  0.4 0.1603283563168221 0  0.42 0.1603283563168221 0  0.44 0.1603283563168221 0  0.46 0.1603283563168221 0  0.48 0.1603283563168221 0  0.5 0.1603283563168221 0  0.52 0.1603283563168221 0  0.54 0.1603283563168221 0  0.5600000000000001 0.1603283563168221 0  0.58 0.1603283563168221 0 
[...]
<PointData  Vectors="u_paraw"> 
<DataArray  type="Float64"  Name="u_paraw"  NumberOfComponents="3" format="ascii">-5.0448410473731640e-05 -5.5406105631089194e-04 0.0000000000000000e+00  -5.0448410478469380e-05 -5.5406105632650445e-04 0.0000000000000000e+00  -5.0448410480417291e-05 -5.5406105632564793e-04 0.0000000000000000e+00  -5.0448410482612841e-05 -5.5406105632428173e-04 0.0000000000000000e+00  -5.0448410483339182e-05 -5.5406105632274216e-04 0.0000000000000000e+00  -5.0448410472113868e-05 -5.5406105631857915e-04 0.0000000000000000e+00  -5.0448410499599362e-05 -5.5406105634878426e-04 0.0000000000000000e+00  -5.0448410476769066e-05 -5.5406105630796481e-04 0.0000000000000000e+00  -5.0448410488704208e-05 -5.5406105632601677e-04 0.0000000000000000e+00  -5.0448410480896014e-05 -5.5406105632302362e-04 0.0000000000000000e+00  -5.0448410491807675e-05 -5.5406105633126431e-04 0.0000000000000000e+00  -5.0448410476802080e-05 -5.5406105631639990e-04 0.0000000000000000e+00  -5.0448410481226174e-05 -5.5406105633591478e-04 0.0000000000000000e+00  -5.0448410481886487e-05 -5.5406105632634128e-04 0.0000000000000000e+00  -5.0448410476339864e-05 -5.5406105632826205e-04 0.0000000000000000e+00  -5.0448410474656064e-05 -5.5406105632393435e-04 0.0000000000000000e+00  -5.0448410475613517e-05 -5.5406105634019738e-04 0.0000000000000000e+00  -5.0448410473021792e-05 -5.5406105632705858e-04 0.0000000000000000e+00  -5.0448410477066205e-05 -5.5406105632150573e-04 0.0000000000000000e+00  -5.0448410491840689e-05 -5.5406105634574849e-04 0.0000000000000000e+00  -5.0448410468713254e-05 -5.5406105632699353e-04 0.0000000000000000e+00  -5.0448410476818587e-05 -5.5406105632330551e-04 0.0000000000000000e+00  -5.0448410481869980e-05 -5.5406105632600517e-04 0.0000000000000000e+00  -5.0448410474837655e-05 -5.5406105632350240e-04 0.0000000000000000e+00  -5.0448410482447751e-05 -5.5406105632930115e-04 0.0000000000000000e+00  -5.0448410488423575e-05 -5.5406105635379327e-04 0.0000000000000000e+00  -5.0448410470661179e-05 -5.5406105633247786e-04 0.0000000000000000e+00  -5.0448410490668640e-05 -5.5406105633217428e-04 0.0000000000000000e+00  -5.0448410485996928e-05 -5.5406105632517337e-04 0.0000000000000000e+00  -5.0448410474573530e-05 -5.5406105632512697e-04 0.0000000000000000e+00  -5.0448410489496583e-05 -5.5406105633113345e-04 0.0000000000000000e+00  -5.0448410489331507e-05 -5.5406105634451250e-04 0.0000000000000000e+00  -5.0448410476092246e-05 -5.5406105631580283e-04 0.0000000000000000e+00  -5.0448410483966468e-05 -5.5406105633118766e-04 0.0000000000000000e+00  -5.0448410482579814e-05 -5.5406105633230742e-04 0.0000000000000000e+00  -5.0448410485798837e-05 -5.5406105633127440e-04 0.0000000000000000e+00  -5.0448410477049698e-05 -5.5406105633113345e-04 0.0000000000000000e+00  -5.0448410483075050e-05 -5.5406105633185986e-04 0.0000000000000000e+00  -5.0448410487598186e-05 -5.5406105631298390e-04 0.0000000000000000e+00  -5.0448410479063651e-05 -5.5406105631984690e-04 0.0000000000000000e+00  -5.0448410483636315e-05 -5.5406105632543358e-04 0.0000000000000000e+00  -5.0448410481094111e-05 -5.5406105634301631e-04 0.0000000000000000e+00  -5.0448410477511914e-05 -5.5406105632431382e-04 0.0000000000000000e+00  -5.0448410489579125e-05 -5.5406105633071061e-04 0.0000000000000000e+00  -5.0448410482233147e-05 -5.5406105632946378e-04 0.0000000000000000e+00  -5.0448410493210843e-05 -5.5406105635149477e-04 0.0000000000000000e+00  -5.0448410484593767e-05 -5.5406105632961860e-04 0.0000000000000000e+00  -5.0448410475927170e-05 -5.5406105632339225e-04 0.0000000000000000e+00  -5.0448410468812303e-05 -5.5406105632622201e-04 0.0000000000000000e+00  -5.0448410480186180e-05 -5.5406105634014317e-04 0.0000000000000000e+00  -5.0448410473731633e-05 3.6645916825247023e-15 0.0000000000000000e+00  -2.1793146963491791e-05 -4.8292260752256280e-04 0.0000000000000000e+00  -2.1793146973956036e-05 -4.8292260753121473e-04 0.0000000000000000e+00  -2.1793146977583210e-05 -4.8292260753633227e-04 0.0000000000000000e+00  -2.1793146985832634e-05 -4.8292260755762589e-04 0.0000000000000000e+00  -2.1793146969494290e-05 -4.8292260752748507e-04 0.0000000000000000e+00  -2.1793146986057328e-05 -4.8292260753685291e-04 0.0000000000000000e+00  -2.1793146991064756e-05 -4.8292260755101194e-04 0.0000000000000000e+00  -2.1793146956622628e-05 -4.8292260752724688e-04 0.0000000000000000e+00  -2.1793146981242491e-05 -4.8292260754175350e-04 0.0000000000000000e+00  -2.1793146970360960e-05 -4.8292260753726425e-04 0.0000000000000000e+00  -2.1793146989267217e-05 -4.8292260753995372e-04 0.0000000000000000e+00  -2.1793146966188103e-05 -4.8292260751926715e-04 0.0000000000000000e+00  -2.1793146975239995e-05 -4.8292260755411275e-04 0.0000000000000000e+00  -2.1793146974790611e-05 -4.8292260753719920e-04 0.0000000000000000e+00  -2.1793146979027666e-05 -4.8292260753412131e-04 0.0000000000000000e+00  -2.1793146964615258e-05 -4.8292260753032536e-04 0.0000000000000000e+00  -2.1793146975881972e-05 -4.8292260754643660e-04 0.0000000000000000e+00  -2.1793146960538695e-05 -4.8292260754227451e-04 0.0000000000000000e+00  -2.1793146965546127e-05 -4.8292260752859064e-04 0.0000000000000000e+00  -2.1793146979541249e-05 -4.8292260754233832e-04 0.0000000000000000e+00  -2.1793146952353473e-05 -4.8292260752700895e-04 0.0000000000000000e+00  -2.1793146969558488e-05 -4.8292260753372975e-04 0.0000000000000000e+00  -2.1793146966059707e-05 -4.8292260752030733e-04 0.0000000000000000e+00  -2.1793146967183170e-05 -4.8292260751959300e-04 0.0000000000000000e+00  -2.1793146974212829e-05 -4.8292260751486464e-04 0.0000000000000000e+00  -2.1793146977326424e-05 -4.8292260752952305e-04 0.0000000000000000e+00  -2.1793146966637488e-05 -4.8292260753041210e-04 0.0000000000000000e+00  -2.1793146975914071e-05 -4.8292260753438028e-04 0.0000000000000000e+00  -2.1793146957970783e-05 -4.8292260752521058e-04 0.0000000000000000e+00  -2.1793146972383194e-05 -4.8292260753652700e-04 0.0000000000000000e+00  -2.1793146972607885e-05 -4.8292260753884719e-04 0.0000000000000000e+00  -2.1793146974951106e-05 -4.8292260753186493e-04 0.0000000000000000e+00  -2.1793146973346158e-05 -4.8292260753602826e-04 0.0000000000000000e+00  -2.1793146972062202e-05 -4.8292260754398631e-04 0.0000000000000000e+00  -2.1793146956109048e-05 -4.8292260752482027e-04 0.0000000000000000e+00  -2.1793146973506654e-05 -4.8292260752488266e-04 0.0000000000000000e+00  -2.1793146975528884e-05 -4.8292260753481396e-04 0.0000000000000000e+00  -2.1793146984099293e-05 -4.8292260754882185e-04 0.0000000000000000e+00  -2.1793146960410302e-05 -4.8292260753980129e-04 0.0000000000000000e+00  -2.1793146959768322e-05 -4.8292260752215047e-04 0.0000000000000000e+00  -2.1793146972094301e-05 -4.8292260752757414e-04 0.0000000000000000e+00  -2.1793146979509150e-05 -4.8292260753780635e-04 0.0000000000000000e+00  -2.1793146959736223e-05 -4.8292260753214682e-04 0.0000000000000000e+00  -2.1793146967054774e-05 -4.8292260753665710e-04 0.0000000000000000e+00  -2.1793146969526389e-05 -4.8292260752672581e-04 0.0000000000000000e+00  -2.1793146981017797e-05 -4.8292260752926284e-04 0.0000000000000000e+00  -2.1793146968531325e-05 -4.8292260752653331e-04 0.0000000000000000e+00  -2.1793146949881858e-05 -4.8292260750567060e-04 0.0000000000000000e+00  -2.1793146969109103e-05 -4.8292260754706544e-04 0.0000000000000000e+00  -2.1793146980022733e-05 -4.8292260754559093e-04 0.0000000000000000e+00  -2.1793146963491794e-05 -9.0997684822088215e-04 0.0000000000000000e+00  4.7444775947815057e-05 5.7192615612140438e-05 0.0000000000000000e+00  4.7444775935562244e-05 5.7192615621421208e-05 0.0000000000000000e+00  4.7444775927775979e-05 5.7192615619990075e-05 0.0000000000000000e+00  4.7444775921921192e-05 5.7192615598262636e-05 0.0000000000000000e+00  4.7444775941537757e-05 5.7192615624196752e-05 0.0000000000000000e+00  4.7444775915402460e-05 5.7192615602079075e-05 0.0000000000000000e+00  4.7444775939183764e-05 5.7192615625497761e-05 0.0000000000000000e+00  4.7444775941417038e-05 5.7192615632827049e-05 0.0000000000000000e+00  4.7444775913893488e-05 5.7192615593058513e-05 0.0000000000000000e+00  4.7444775937493723e-05 5.7192615613267961e-05 0.0000000000000000e+00  4.7444775925844506e-05 5.7192615629834651e-05 0.0000000000000000e+00  4.7444775935320813e-05 5.7192615608193976e-05 0.0000000000000000e+00  4.7444775938036949e-05 5.7192615612097022e-05 0.0000000000000000e+00  4.7444775938157668e-05 5.7192615614569003e-05 0.0000000000000000e+00  4.7444775944857482e-05 5.7192615623286145e-05 0.0000000000000000e+00  4.7444775942262058e-05 5.7192615607413269e-05 0.0000000000000000e+00  4.7444775929888533e-05 5.7192615612053654e-05 0.0000000000000000e+00  4.7444775941537757e-05 5.7192615606459327e-05 0.0000000000000000e+00  4.7444775940089147e-05 5.7192615608020422e-05 0.0000000000000000e+00  4.7444775924637328e-05 5.7192615602252467e-05 0.0000000000000000e+00  4.7444775942443133e-05 5.7192615599173488e-05 0.0000000000000000e+00  4.7444775927775979e-05 5.7192615595096732e-05 0.0000000000000000e+00  4.7444775944133174e-05 5.7192615607066324e-05 0.0000000000000000e+00  4.7444775933449697e-05 5.7192615614612527e-05 0.0000000000000000e+00  4.7444775927715622e-05 5.7192615622678835e-05 0.0000000000000000e+00  4.7444775927293109e-05 5.7192615621551265e-05 0.0000000000000000e+00  4.7444775935200094e-05 5.7192615618385395e-05 0.0000000000000000e+00  4.7444775933992923e-05 5.7192615619859910e-05 0.0000000000000000e+00  4.7444775917937521e-05 5.7192615600127749e-05 0.0000000000000000e+00  4.7444775924758048e-05 5.7192615601948890e-05 0.0000000000000000e+00  4.7444775933510053e-05 5.7192615602902988e-05 0.0000000000000000e+00  4.7444775926387732e-05 5.7192615611966918e-05 0.0000000000000000e+00  4.7444775932665032e-05 5.7192615600127430e-05 0.0000000000000000e+00  4.7444775931880368e-05 5.7192615614785844e-05 0.0000000000000000e+00  4.7444775917635727e-05 5.7192615598089449e-05 0.0000000000000000e+00  4.7444775916126761e-05 5.7192615597698817e-05 0.0000000000000000e+00  4.7444775927836341e-05 5.7192615623025780e-05 0.0000000000000000e+00  4.7444775932242519e-05 5.7192615615783310e-05 0.0000000000000000e+00  4.7444775946185372e-05 5.7192615607673477e-05 0.0000000000000000e+00  4.7444775947030393e-05 5.7192615615132788e-05 0.0000000000000000e+00  4.7444775923068007e-05 5.7192615606893170e-05 0.0000000000000000e+00  4.7444775929767814e-05 5.7192615624803872e-05 0.0000000000000000e+00  4.7444775929224588e-05 5.7192615612877648e-05 0.0000000000000000e+00  4.7444775935682963e-05 5.7192615605678545e-05 0.0000000000000000e+00  4.7444775927413828e-05 5.7192615615262893e-05 0.0000000000000000e+00  4.7444775917515008e-05 5.7192615604420871e-05 0.0000000000000000e+00  4.7444775935562244e-05 5.7192615614872898e-05 0.0000000000000000e+00  4.7444775935743326e-05 5.7192615629140680e-05 0.0000000000000000e+00  4.7444775917032138e-05 5.7192615606155594e-05 0.0000000000000000e+00  4.7444775944012462e-05 5.7192615619556333e-05 0.0000000000000000e+00  4.7444775947815057e-05 3.3093745500425447e-05 0.0000000000000000e+00  -3.9007849168190315e-05 -5.5314581130592316e-04 0.0000000000000000e+00  -3.9007849159971737e-05 -5.5314581130791809e-04 0.0000000000000000e+00  -3.9007849183329795e-05 -5.5314581132058168e-04 0.0000000000000000e+00  -3.9007849173921685e-05 -5.5314581130600979e-04 0.0000000000000000e+00  -3.9007849157700815e-05 -5.5314581131511709e-04 0.0000000000000000e+00  -3.9007849149590372e-05 -5.5314581131242870e-04 0.0000000000000000e+00  -3.9007849153591526e-05 -5.5314581130306044e-04 0.0000000000000000e+00  -3.9007849169704254e-05 -5.5314581132847489e-04 0.0000000000000000e+00  -3.9007849158782198e-05 -5.5314581127842812e-04 0.0000000000000000e+00  -3.9007849180193761e-05 -5.5314581132465774e-04 0.0000000000000000e+00  -3.9007849168298444e-05 -5.5314581134053122e-04 0.0000000000000000e+00  -3.9007849149157810e-05 -5.5314581131234197e-04 0.0000000000000000e+00  -3.9007849174137963e-05 -5.5314581132474448e-04 0.0000000000000000e+00  -3.9007849161701961e-05 -5.5314581131364225e-04 0.0000000000000000e+00  -3.9007849165270551e-05 -5.5314581130800592e-04 0.0000000000000000e+00  -3.9007849174678662e-05 -5.5314581131806579e-04 0.0000000000000000e+00  -3.9007849168839149e-05 -5.5314581132136177e-04 0.0000000000000000e+00  -3.9007849159647310e-05 -5.5314581131017432e-04 0.0000000000000000e+00  -3.9007849175651916e-05 -5.5314581134131109e-04 0.0000000000000000e+00  -3.9007849158565927e-05 -5.5314581130444821e-04 0.0000000000000000e+00  -3.9007849161810097e-05 -5.5314581130670487e-04 0.0000000000000000e+00  -3.9007849167325196e-05 -5.5314581133246400e-04 0.0000000000000000e+00  -3.9007849156295004e-05 -5.5314581131260141e-04 0.0000000000000000e+00  -3.9007849167974030e-05 -5.5314581131607238e-04 0.0000000000000000e+00  -3.9007849164621717e-05 -5.5314581131737190e-04 0.0000000000000000e+00  -3.9007849161918239e-05 -5.5314581132266281e-04 0.0000000000000000e+00  -3.9007849164621717e-05 -5.5314581129560112e-04 0.0000000000000000e+00  -3.9007849178679815e-05 -5.5314581131650454e-04 0.0000000000000000e+00  -3.9007849181491429e-05 -5.5314581131303813e-04 0.0000000000000000e+00  -3.9007849166460084e-05 -5.5314581132561184e-04 0.0000000000000000e+00  -3.9007849171001929e-05 -5.5314581132595879e-04 0.0000000000000000e+00  -3.9007849167433338e-05 -5.5314581133402525e-04 0.0000000000000000e+00  -3.9007849162134517e-05 -5.5314581131407593e-04 0.0000000000000000e+00  -3.9007849160188015e-05 -5.5314581131928010e-04 0.0000000000000000e+00  -3.9007849164189161e-05 -5.5314581130401757e-04 0.0000000000000000e+00  -3.9007849161485683e-05 -5.5314581132058114e-04 0.0000000000000000e+00  -3.9007849159214761e-05 -5.5314581130132571e-04 0.0000000000000000e+00  -3.9007849159539181e-05 -5.5314581130123898e-04 0.0000000000000000e+00  -3.9007849172624017e-05 -5.5314581131208100e-04 0.0000000000000000e+00  -3.9007849168947284e-05 -5.5314581133645386e-04 0.0000000000000000e+00  -3.9007849159322896e-05 -5.5314581131841577e-04 0.0000000000000000e+00  -3.9007849160404293e-05 -5.5314581131286162e-04 0.0000000000000000e+00  -3.9007849169487983e-05 -5.5314581131034627e-04 0.0000000000000000e+00  -3.9007849153915939e-05 -5.5314581131112690e-04 0.0000000000000000e+00  -3.9007849148617118e-05 -5.5314581127695285e-04 0.0000000000000000e+00  -3.9007849162891493e-05 -5.5314581132830066e-04 0.0000000000000000e+00  -3.9007849142777605e-05 -5.5314581130080833e-04 0.0000000000000000e+00  -3.9007849150888040e-05 -5.5314581130843808e-04 0.0000000000000000e+00  -3.9007849162134517e-05 -5.5314581130956565e-04 0.0000000000000000e+00  -3.9007849149374094e-05 -5.5314581128805508e-04 0.0000000000000000e+00  -3.9007849168190315e-05 -1.2315349096436338e-04 0.0000000000000000e+00  7.1757781744739090e-05 2.1313614104283280e-04 0.0000000000000000e+00  7.1757781766932613e-05 2.1313614105454218e-04 0.0000000000000000e+00  7.1757781740848593e-05 2.1313614106104750e-04 0.0000000000000000e+00  7.1757781743943299e-05 2.1313614102401105e-04 0.0000000000000000e+00  7.1757781756145317e-05 2.1313614104742981e-04 0.0000000000000000e+00  7.1757781750663252e-05 2.1313614106364961e-04 0.0000000000000000e+00  7.1757781735012834e-05 2.1313614104040407e-04 0.0000000000000000e+00  7.1757781743589618e-05 2.1313614106390982e-04 0.0000000000000000e+00  7.1757781733509682e-05 2.1313614106998135e-04 0.0000000000000000e+00  7.1757781713349824e-05 2.1313614103415907e-04 0.0000000000000000e+00  7.1757781742440147e-05 2.1313614104014411e-04 0.0000000000000000e+00  7.1757781732890752e-05 2.1313614105870565e-04 0.0000000000000000e+00  7.1757781724313968e-05 2.1313614102886816e-04 0.0000000000000000e+00  7.1757781741555953e-05 2.1313614104786339e-04 0.0000000000000000e+00  7.1757781729088672e-05 2.1313614105315486e-04 0.0000000000000000e+00  7.1757781731918114e-05 2.1313614102739365e-04 0.0000000000000000e+00  7.1757781755791636e-05 2.1313614105905235e-04 0.0000000000000000e+00  7.1757781741379106e-05 2.1313614106286931e-04 0.0000000000000000e+00  7.1757781737665443e-05 2.1313614104083775e-04 0.0000000000000000e+00  7.1757781769938916e-05 2.1313614104265921e-04 0.0000000000000000e+00  7.1757781756145317e-05 2.1313614106946126e-04 0.0000000000000000e+00  7.1757781732448642e-05 2.1313614103450601e-04 0.0000000000000000e+00  7.1757781755968483e-05 2.1313614104777665e-04 0.0000000000000000e+00  7.1757781744296979e-05 2.1313614105887945e-04 0.0000000000000000e+00  7.1757781743943299e-05 2.1313614104925116e-04 0.0000000000000000e+00  7.1757781733598113e-05 2.1313614105298082e-04 0.0000000000000000e+00  7.1757781739787538e-05 2.1313614104595519e-04 0.0000000000000000e+00  7.1757781759770563e-05 2.1313614102080170e-04 0.0000000000000000e+00  7.1757781773564149e-05 2.1313614105575754e-04 0.0000000000000000e+00  7.1757781758002148e-05 2.1313614103077636e-04 0.0000000000000000e+00  7.1757781756852691e-05 2.1313614104656234e-04 0.0000000000000000e+00  7.1757781748806420e-05 2.1313614104855727e-04 0.0000000000000000e+00  7.1757781746595908e-05 2.1313614103519990e-04 0.0000000000000000e+00  7.1757781762865269e-05 2.1313614104456741e-04 0.0000000000000000e+00  7.1757781758974773e-05 2.1313614103684906e-04 0.0000000000000000e+00  7.1757781771972581e-05 2.1313614105697068e-04 0.0000000000000000e+00  7.1757781762069492e-05 2.1313614106243506e-04 0.0000000000000000e+00  7.1757781754995859e-05 2.1313614104942464e-04 0.0000000000000000e+00  7.1757781740406482e-05 2.1313614102687323e-04 0.0000000000000000e+00  7.1757781756056900e-05 2.1313614104751644e-04 0.0000000000000000e+00  7.1757781755084276e-05 2.1313614104786455e-04 0.0000000000000000e+00  7.1757781760389507e-05 2.1313614104847054e-04 0.0000000000000000e+00  7.1757781744385409e-05 2.1313614104109796e-04 0.0000000000000000e+00  7.1757781755172692e-05 2.1313614103207740e-04 0.0000000000000000e+00  7.1757781767463140e-05 2.1313614105705742e-04 0.0000000000000000e+00  7.1757781747038018e-05 2.1313614104378678e-04 0.0000000000000000e+00  7.1757781760477924e-05 2.1313614104552267e-04 0.0000000000000000e+00  7.1757781756233747e-05 2.1313614105220019e-04 0.0000000000000000e+00  7.1757781758178995e-05 2.1313614105419513e-04 0.0000000000000000e+00  7.1757781768966292e-05 2.1313614106989437e-04 0.0000000000000000e+00  7.1757781744739090e-05 -7.9600683411478368e-04 0.0000000000000000e+00  -1.7879227467011640e-04 -8.1391937538748127e-04 0.0000000000000000e+00  -1.7879227466175525e-04 -8.1391937536371556e-04 0.0000000000000000e+00  -1.7879227467826854e-04 -8.1391937538314468e-04 0.0000000000000000e+00  -1.7879227467879110e-04 -8.1391937536562354e-04 0.0000000000000000e+00  -1.7879227470063463e-04 -8.1391937536492965e-04 0.0000000000000000e+00  -1.7879227470230685e-04 -8.1391937535330765e-04 0.0000000000000000e+00  -1.7879227471390792e-04 -8.1391937541141959e-04 0.0000000000000000e+00  -1.7879227469060123e-04 -8.1391937539563490e-04 0.0000000000000000e+00  -1.7879227467973172e-04 -8.1391937539736963e-04 0.0000000000000000e+00  -1.7879227465569339e-04 -8.1391937538800082e-04 0.0000000000000000e+00  -1.7879227467074350e-04 -8.1391937540292074e-04 0.0000000000000000e+00  -1.7879227466102365e-04 -8.1391937539355324e-04 0.0000000000000000e+00  -1.7879227465454373e-04 -8.1391937539962347e-04 0.0000000000000000e+00  -1.7879227464931801e-04 -8.1391937537672512e-04 0.0000000000000000e+00  -1.7879227466342746e-04 -8.1391937535677818e-04 0.0000000000000000e+00  -1.7879227468067235e-04 -8.1391937541662376e-04 0.0000000000000000e+00  -1.7879227468056783e-04 -8.1391937535885747e-04 0.0000000000000000e+00  -1.7879227469927590e-04 -8.1391937540881989e-04 0.0000000000000000e+00  -1.7879227468046332e-04 -8.1391937540239902e-04 0.0000000000000000e+00  -1.7879227469185538e-04 -8.1391937537152095e-04 0.0000000000000000e+00  -1.7879227469405019e-04 -8.1391937539962585e-04 0.0000000000000000e+00  -1.7879227468788384e-04 -8.1391937542234834e-04 0.0000000000000000e+00  -1.7879227468516645e-04 -8.1391937537950067e-04 0.0000000000000000e+00  -1.7879227469593144e-04 -8.1391937538956446e-04 0.0000000000000000e+00  -1