<?xml version="1.0"?>
<VTKFile type="UnstructuredGrid"  version="0.1"  >
<UnstructuredGrid>
<Piece  NumberOfPoints="2601" NumberOfCells="5000">
<Points>
<DataArray  type="Float64"  NumberOfComponents="3"  format="ascii">0 0 0  0.02 0 0  0.04 0 0  0.06 0 0  0.08 0 0  0.1 0 0  0.12 0 0  0.14 0 0  0.16 0 0  0.18 0 0  0.2 0 0  0.22 0 0  0.24 0 0  0.26 0 0  0.28 0 0  0.3 0 0  0.32 0 0  0.34 0 0  0.36 0 0  0.38 0 0  0.4 0 0  0.42 0 0  0.44 0 0  0.46 0 0  0.48 0 0  0.5 0 0  0.52 0 0  0.54 0 0  0.5600000000000001 0 0  0.58 0 0  0.6 0 0  0.62 0 0  0.64 0 0  0.66 0 0  0.68 0 0  0.7 0 0  0.72 0 0  0.74 0 0  0.76 0 0  0.78 0 0  0.8 0 0  0.82 0 0  0.84 0 0  0.86 0 0  0.88 0 0  0.9 0 0  0.92 0 0  0.9399999999999999 0 0  0.96 0 0  0.98 0 0  1 0 0  0 0.01313563088723984 0  0.02 0.01313563088723984 0  0.04 0.01313563088723984 0  0.06 0.01313563088723984 0  0.08 0.01313563088723984 0  0.1 0.01313563088723984 0  0.12 0.01313563088723984 0  0.14 0.01313563088723984 0  0.16 0.01313563088723984 0  0.18 0.01313563088723984 0  0.2 0.01313563088723984 0  0.22 0.01313563088723984 0  0.24 0.01313563088723984 0  0.26 0.01313563088723984 0  0.28 0.01313563088723984 0  0.3 0.01313563088723984 0  0.32 0.01313563088723984 0  0.34 0.01313563088723984 0  0.36 0.01313563088723984 0  0.38 0.01313563088723984 0  0.4 0.01313563088723984 0  0.42 0.01313563088723984 0  0.44 0.01313563088723984 0  0.46 0.01313563088723984 0  0.48 0.01313563088723984 0  0.5 0.01313563088723984 0  0.52 0.01313563088723984 0  0.54 0.01313563088723984 0  0.5600000000000001 0.01313563088723984 0  0.58 0.01313563088723984 0  0.6 0.01313563088723984 0  0.62 0.01313563088723984 0  0.64 0.01313563088723984 0  0.66 0.01313563088723984 0  0.68 0.01313563088723984 0  0.7 0.01313563088723984 0  0.72 0.01313563088723984 0  0.74 0.01313563088723984 0  0.76 0.01313563088723984 0  0.78 0.01313563088723984 0  0.8 0.01313563088723984 0  0.82 0.01313563088723984 0  0.84 0.01313563088723984 0  0.86 0.01313563088723984 0  0.88 0.01313563088723984 0  0.9 0.01313563088723984 0  0.92 0.01313563088723984 0  0.9399999999999999 0.01313563088723984 0  0.96 0.01313563088723984 0  0.98 0.01313563088723984 0  1 0.01313563088723984 0  0 0.02664639863733726 0  0.02 0.02664639863733726 0  0.04 0.02664639863733726 0  0.06 0.02664639863733726 0  0.08 0.02664639863733726 0  0.1 0.02664639863733726 0  0.12 0.02664639863733726 0  0.14 0.02664639863733726 0  0.16 0.02664639863733726 0  0.18 0.02664639863733726 0  0.2 0.02664639863733726 0  0.22 0.02664639863733726 0  0.24 0.02664639863733726 0  0.26 0.02664639863733726 0  0.28 0.02664639863733726 0  0.3 0.02664639863733726 0  0.32 0.02664639863733726 0  0.34 0.02664639863733726 0  0.36 0.02664639863733726 0  0.38 0.02664639863733726 0  0.4 0.02664639863733726 0  0.42 0.02664639863733726 0  0.44 0.02664639863733726 0  0.46 0.02664639863733726 0  0.48 0.02664639863733726 0  0.5 0.02664639863733726 0  0.52 0.02664639863733726 0  0.54 0.02664639863733726 0  0.5600000000000001 0.02664639863733726 0  0.58 0.02664639863733726 0  0.6 0.02664639863733726 0  0.62 0.02664639863733726 0  0.64 0.02664639863733726 0  0.66 0.02664639863733726 0  0.68 0.02664639863733726 0  0.7 0.02664639863733726 0  0.72 0.02664639863733726 0  0.74 0.02664639863733726 0  0.76 0.02664639863733726 0  0.78 0.02664639863733726 0  0.8 0.02664639863733726 0  0.82 0.02664639863733726 0  0.84 0.02664639863733726 0  0.86 0.02664639863733726 0  0.88 0.02664639863733726 0  0.9 0.02664639863733726 0  0.92 0.02664639863733726 0  0.9399999999999999 0.02664639863733726 0  0.96 0.02664639863733726 0  0.98 0.02664639863733726 0  1 0.02664639863733726 0  0 0.04101652939099896 0  0.02 0.04101652939099896 0  0.04 0.04101652939099896 0  0.06 0.04101652939099896 0  0.08 0.04101652939099896 0  0.1 0.04101652939099896 0  0.12 0.04101652939099896 0  0.14 0.04101652939099896 0  0.16 0.04101652939099896 0  0.18 0.04101652939099896 0  0.2 0.04101652939099896 0  0.22 0.04101652939099896 0  0.24 0.04101652939099896 0  0.26 0.04101652939099896 0  0.28 0.04101652939099896 0  0.3 0.04101652939099896 0  0.32 0.04101652939099896 0  0.34 0.04101652939099896 0  0.36 0.04101652939099896 0  0.38 0.04101652939099896 0  0.4 0.04101652939099896 0  0.42 0.04101652939099896 0  0.44 0.04101652939099896 0  0.46 0.04101652939099896 0  0.48 0.04101652939099896 0  0.5 0.04101652939099896 0  0.52 0.04101652939099896 0  0.54 0.04101652939099896 0  0.5600000000000001 0.04101652939099896 0  0.58 0.04101652939099896 0  0.6 0.04101652939099896 0  0.62 0.04101652939099896 0  0.64 0.04101652939099896 0  0.66 0.04101652939099896 0  0.68 0.04101652939099896 0  0.7 0.04101652939099896 0  0.72 0.04101652939099896 0  0.74 0.04101652939099896 0  0.76 0.04101652939099896 0  0.78 0.04101652939099896 0  0.8 0.04101652939099896 0  0.82 0.04101652939099896 0  0.84 0.04101652939099896 0  0.86 0.04101652939099896 0  0.88 0.04101652939099896 0  0.9 0.04101652939099896 0  0.92 0.04101652939099896 0  0.9399999999999999 0.04101652939099896 0  0.96 0.04101652939099896 0  0.98 0.04101652939099896 0  1 0.04101652939099896 0  0 0.05705811164099547 0  0.02 0.05705811164099547 0  0.04 0.05705811164099547 0  0.06 0.05705811164099547 0  0.08 0.05705811164099547 0  0.1 0.05705811164099547 0  0.12 0.05705811164099547 0  0.14 0.05705811164099547 0  0.16 0.05705811164099547 0  0.18 0.05705811164099547 0  0.2 0.05705811164099547 0  0.22 0.05705811164099547 0  0.24 0.05705811164099547 0  0.26 0.05705811164099547 0  0.28 0.05705811164099547 0  0.3 0.05705811164099547 0  0.32 0.05705811164099547 0  0.34 0.05705811164099547 0  0.36 0.05705811164099547 0  0.38 0.05705811164099547 0  0.4 0.05705811164099547 0  0.42 0.05705811164099547 0  0.44 0.05705811164099547 0  0.46 0.05705811164099547 0  0.48 0.05705811164099547 0  0.5 0.05705811164099547 0  0.52 0.05705811164099547 0  0.54 0.05705811164099547 0  0.5600000000000001 0.05705811164099547 0  0.58 0.05705811164099547 0  0.6 0.05705811164099547 0  0.62 0.05705811164099547 0  0.64 0.05705811164099547 0  0.66 0.05705811164099547 0  0.68 0.05705811164099547 0  0.7 0.05705811164099547 0  0.72 0.05705811164099547 0  0.74 0.05705811164099547 0  0.76 0.05705811164099547 0  0.78 0.05705811164099547 0  0.8 0.05705811164099547 0  0.82 0.05705811164099547 0  0.84 0.05705811164099547 0  0.86 0.05705811164099547 0  0.88 0.05705811164099547 0  0.9 0.05705811164099547 0  0.92 0.05705811164099547 0  0.9399999999999999 0.05705811164099547 0  0.96 0.05705811164099547 0  0.98 0.05705811164099547 0  1 0.05705811164099547 0  0 0.07667714377545 0  0.02 0.07667714377545 0  0.04 0.07667714377545 0  0.06 0.07667714377545 0  0.08 0.07667714377545 0  0.1 0.07667714377545 0  0.12 0.07667714377545 0  0.14 0.07667714377545 0  0.16 0.07667714377545 0  0.18 0.07667714377545 0  0.2 0.07667714377545 0  0.22 0.07667714377545 0  0.24 0.07667714377545 0  0.26 0.07667714377545 0  0.28 0.07667714377545 0  0.3 0.07667714377545 0  0.32 0.07667714377545 0  0.34 0.07667714377545 0  0.36 0.07667714377545 0  0.38 0.07667714377545 0  0.4 0.07667714377545 0  0.42 0.07667714377545 0  0.44 0.07667714377545 0  0.46 0.07667714377545 0  0.48 0.07667714377545 0  0.5 0.07667714377545 0  0.52 0.07667714377545 0  0.54 0.07667714377545 0  0.5600000000000001 0.07667714377545 0  0.58 0.07667714377545 0  0.6 0.07667714377545 0  0.62 0.07667714377545 0  0.64 0.07667714377545 0  0.66 0.07667714377545 0  0.68 0.07667714377545 0  0.7 0.07667714377545 0  0.72 0.07667714377545 0  0.74 0.07667714377545 0  0.76 0.07667714377545 0  0.78 0.07667714377545 0  0.8 0.07667714377545 0  0.82 0.07667714377545 0  0.84 0.07667714377545 0  0.86 0.07667714377545 0  0.88 0.07667714377545 0  0.9 0.07667714377545 0  0.92 0.07667714377545 0  0.9399999999999999 0.07667714377545 0  0.96 0.07667714377545 0  0.98 0.07667714377545 0  1 0.07667714377545 0  0 0.1098730133816912 0  0.02 0.1098730133816912 0  0.04 0.1098730133816912 0  0.06 0.1098730133816912 0  0.08 0.1098730133816912 0  0.1 0.1098730133816912 0  0.12 0.1098730133816912 0  0.14 0.1098730133816912 0  0.16 0.1098730133816912 0  0.18 0.1098730133816912 0  0.2 0.1098730133816912 0  0.22 0.1098730133816912 0  0.24 0.1098730133816912 0  0.26 0.1098730133816912 0  0.28 0.1098730133816912 0  0.3 0.1098730133816912 0  0.32 0.1098730133816912 0  0.34 0.1098730133816912 0  0.36 0.1098730133816912 0  0.38 0.1098730133816912 0  0.4 0.1098730133816912 0  0.42 0.1098730133816912 0  0.44 0.1098730133816912 0  0.46 0.1098730133816912 0  0.48 0.1098730133816912 0  0.5 0.1098730133816912 0  0.52 0.1098730133816912 0  0.54 0.1098730133816912 0  0.5600000000000001 0.1098730133816912 0  0.58 0.1098730133816912 0  0.6 0.1098730133816912 0  0.62 0.1098730133816912 0  0.64 0.1098730133816912 0  0.66 0.1098730133816912 0  0.68 0.1098730133816912 0  0.7 0.1098730133816912 0  0.72 0.1098730133816912 0  0.74 0.1098730133816912 0  0.76 0.1098730133816912 0  0.78 0.1098730133816912 0  0.8 0.1098730133816912 0  0.82 0.1098730133816912 0  0.84 0.1098730133816912 0  0.86 0.1098730133816912 0  0.88 0.1098730133816912 0  0.9 0.1098730133816912 0  0.92 0.1098730133816912 0  0.9399999999999999 0.1098730133816912 0  0.96 0.1098730133816912 0  0.98 0.1098730133816912 0  1 0.1098730133816912 0  0 0.1603283563168221 0  0.02 0.1603283563168221 0  0.04 0.1603283563168221 0  0.06 0.1603283563168221 0  0.08 0.1603283563168221 0  0.1 0.1603283563168221 0  0.12 0.1603283563168221 0  0.14 0.1603283563168221 0  0.16 0.1603283563168221 0  0.18 0.1603283563168221 0  0.2 0.1603283563168221 0  0.22 0.1603283563168221 0  0.24 0.1603283563168221 0  0.26 0.1603283563168221 0  0.28 0.1603283563168221 0  0.3 0.1603283563168221 0  0.32 0.1603283563168221 0  0.34 0.1603283563168221 0  0.36 0.1603283563168221 0  0.38 0.1603283563168221 0  0.4 0.1603283563168221 0  0.42 0.1603283563168221 0  0.44 0.1603283563168221 0  0.46 0.1603283563168221 0  0.48 0.1603283563168221 0  0.5 0.1603283563168221 0  0.52 0.1603283563168221 0  0.54 0.1603283563168221 0  0.5600000000000001 0.1603283563168221 0  0.58 0.1603283563168221 0 
[...]
<PointData  Vectors="u_paraw"> 
<DataArray  type="Float64"  Name="u_paraw"  NumberOfComponents="3" format="ascii">1.3535168449052887e-05 -1.6888267167202700e-04 0.0000000000000000e+00  1.3535168446296084e-05 -1.6888267167910684e-04 0.0000000000000000e+00  1.3535168452750633e-05 -1.6888267166745166e-04 0.0000000000000000e+00  1.3535168443753883e-05 -1.6888267168974283e-04 0.0000000000000000e+00  1.3535168452238895e-05 -1.6888267168422425e-04 0.0000000000000000e+00  1.3535168453592531e-05 -1.6888267166900216e-04 0.0000000000000000e+00  1.3535168445998942e-05 -1.6888267169008962e-04 0.0000000000000000e+00  1.3535168446675762e-05 -1.6888267168112354e-04 0.0000000000000000e+00  1.3535168453708087e-05 -1.6888267167662410e-04 0.0000000000000000e+00  1.3535168444958950e-05 -1.6888267167920423e-04 0.0000000000000000e+00  1.3535168450257956e-05 -1.6888267168291247e-04 0.0000000000000000e+00  1.3535168453476977e-05 -1.6888267168636023e-04 0.0000000000000000e+00  1.3535168448194480e-05 -1.6888267168528660e-04 0.0000000000000000e+00  1.3535168444892918e-05 -1.6888267168047274e-04 0.0000000000000000e+00  1.3535168453856656e-05 -1.6888267167533414e-04 0.0000000000000000e+00  1.3535168446279574e-05 -1.6888267168690206e-04 0.0000000000000000e+00  1.3535168452486508e-05 -1.6888267168016917e-04 0.0000000000000000e+00  1.3535168458511858e-05 -1.6888267167780612e-04 0.0000000000000000e+00  1.3535168450505572e-05 -1.6888267167990896e-04 0.0000000000000000e+00  1.3535168456844568e-05 -1.6888267168037517e-04 0.0000000000000000e+00  1.3535168445652277e-05 -1.6888267168758562e-04 0.0000000000000000e+00  1.3535168455986163e-05 -1.6888267168434335e-04 0.0000000000000000e+00  1.3535168445503707e-05 -1.6888267167594078e-04 0.0000000000000000e+00  1.3535168454005226e-05 -1.6888267168473417e-04 0.0000000000000000e+00  1.3535168454847124e-05 -1.6888267168590460e-04 0.0000000000000000e+00  1.3535168437513930e-05 -1.6888267168315072e-04 0.0000000000000000e+00  1.3535168451363977e-05 -1.6888267167932349e-04 0.0000000000000000e+00  1.3535168441063108e-05 -1.6888267168649007e-04 0.0000000000000000e+00  1.3535168452767142e-05 -1.6888267167273249e-04 0.0000000000000000e+00  1.3535168447303057e-05 -1.6888267169366748e-04 0.0000000000000000e+00  1.3535168442697380e-05 -1.6888267168784532e-04 0.0000000000000000e+00  1.3535168459931529e-05 -1.6888267168305314e-04 0.0000000000000000e+00  1.3535168436523460e-05 -1.6888267168770437e-04 0.0000000000000000e+00  1.3535168451974766e-05 -1.6888267168248936e-04 0.0000000000000000e+00  1.3535168454450938e-05 -1.6888267168265294e-04 0.0000000000000000e+00  1.3535168445041488e-05 -1.6888267168097148e-04 0.0000000000000000e+00  1.3535168444991965e-05 -1.6888267168551428e-04 0.0000000000000000e+00  1.3535168448277018e-05 -1.6888267169905597e-04 0.0000000000000000e+00  1.3535168446725284e-05 -1.6888267167821760e-04 0.0000000000000000e+00  1.3535168452915711e-05 -1.6888267167820676e-04 0.0000000000000000e+00  1.3535168449019870e-05 -1.6888267168173137e-04 0.0000000000000000e+00  1.3535168452453494e-05 -1.6888267167067156e-04 0.0000000000000000e+00  1.3535168445701801e-05 -1.6888267169462158e-04 0.0000000000000000e+00  1.3535168448689713e-05 -1.6888267168625154e-04 0.0000000000000000e+00  1.3535168450323987e-05 -1.6888267168421324e-04 0.0000000000000000e+00  1.3535168444018004e-05 -1.6888267169109792e-04 0.0000000000000000e+00  1.3535168451182392e-05 -1.6888267168959183e-04 0.0000000000000000e+00  1.3535168451281439e-05 -1.6888267167862960e-04 0.0000000000000000e+00  1.3535168440815490e-05 -1.6888267168722732e-04 0.0000000000000000e+00  1.3535168454698555e-05 -1.6888267168323746e-04 0.0000000000000000e+00  1.3535168449052885e-05 -1.3084161265810052e-15 0.0000000000000000e+00  -9.7639278459301656e-05 -3.6855877753865380e-04 0.0000000000000000e+00  -9.7639278461420187e-05 -3.6855877753080418e-04 0.0000000000000000e+00  -9.7639278458627580e-05 -3.6855877752176204e-04 0.0000000000000000e+00  -9.7639278472044935e-05 -3.6855877753622519e-04 0.0000000000000000e+00  -9.7639278466106637e-05 -3.6855877753622519e-04 0.0000000000000000e+00  -9.7639278467005414e-05 -3.6855877754181994e-04 0.0000000000000000e+00  -9.7639278464597997e-05 -3.6855877754791262e-04 0.0000000000000000e+00  -9.7639278460746125e-05 -3.6855877753366674e-04 0.0000000000000000e+00  -9.7639278466138743e-05 -3.6855877753824207e-04 0.0000000000000000e+00  -9.7639278465143676e-05 -3.6855877754201456e-04 0.0000000000000000e+00  -9.7639278460296737e-05 -3.6855877753470758e-04 0.0000000000000000e+00  -9.7639278465079478e-05 -3.6855877754329446e-04 0.0000000000000000e+00  -9.7639278463923921e-05 -3.6855877754520211e-04 0.0000000000000000e+00  -9.7639278455032515e-05 -3.6855877752802835e-04 0.0000000000000000e+00  -9.7639278469605425e-05 -3.6855877754633066e-04 0.0000000000000000e+00  -9.7639278465272073e-05 -3.6855877752787656e-04 0.0000000000000000e+00  -9.7639278456059688e-05 -3.6855877753871858e-04 0.0000000000000000e+00  -9.7639278455257216e-05 -3.6855877753555369e-04 0.0000000000000000e+00  -9.7639278463763419e-05 -3.6855877754277350e-04 0.0000000000000000e+00  -9.7639278457825122e-05 -3.6855877753694049e-04 0.0000000000000000e+00  -9.7639278456862160e-05 -3.6855877752922195e-04 0.0000000000000000e+00  -9.7639278460778217e-05 -3.6855877753214832e-04 0.0000000000000000e+00  -9.7639278460360935e-05 -3.6855877753522745e-04 0.0000000000000000e+00  -9.7639278467133810e-05 -3.6855877754073617e-04 0.0000000000000000e+00  -9.7639278464341204e-05 -3.6855877753505398e-04 0.0000000000000000e+00  -9.7639278467936283e-05 -3.6855877754121225e-04 0.0000000000000000e+00  -9.7639278460874522e-05 -3.6855877753874027e-04 0.0000000000000000e+00  -9.7639278466331338e-05 -3.6855877753687544e-04 0.0000000000000000e+00  -9.7639278458595501e-05 -3.6855877753640045e-04 0.0000000000000000e+00  -9.7639278468353565e-05 -3.6855877753906553e-04 0.0000000000000000e+00  -9.7639278457793029e-05 -3.6855877753206158e-04 0.0000000000000000e+00  -9.7639278458691792e-05 -3.6855877753106411e-04 0.0000000000000000e+00  -9.7639278467711582e-05 -3.6855877753646344e-04 0.0000000000000000e+00  -9.7639278453395478e-05 -3.6855877753516240e-04 0.0000000000000000e+00  -9.7639278458852295e-05 -3.6855877753657392e-04 0.0000000000000000e+00  -9.7639278463378229e-05 -3.6855877753102075e-04 0.0000000000000000e+00  -9.7639278463281938e-05 -3.6855877754023646e-04 0.0000000000000000e+00  -9.7639278468128878e-05 -3.6855877753826322e-04 0.0000000000000000e+00  -9.7639278457793029e-05 -3.6855877753325420e-04 0.0000000000000000e+00  -9.7639278464052305e-05 -3.6855877753815480e-04 0.0000000000000000e+00  -9.7639278459301669e-05 -3.6855877753757139e-04 0.0000000000000000e+00  -9.7639278453588073e-05 -3.6855877753282052e-04 0.0000000000000000e+00  -9.7639278470504188e-05 -3.6855877753063043e-04 0.0000000000000000e+00  -9.7639278457825122e-05 -3.6855877752935107e-04 0.0000000000000000e+00  -9.7639278461035011e-05 -3.6855877753986784e-04 0.0000000000000000e+00  -9.7639278464533799e-05 -3.6855877753874027e-04 0.0000000000000000e+00  -9.7639278455706591e-05 -3.6855877753529456e-04 0.0000000000000000e+00  -9.7639278459911547e-05 -3.6855877753748259e-04 0.0000000000000000e+00  -9.7639278467743688e-05 -3.6855877752455890e-04 0.0000000000000000e+00  -9.7639278459044876e-05 -3.6855877753546598e-04 0.0000000000000000e+00  -9.7639278459301669e-05 -3.8898960657688845e-04 0.0000000000000000e+00  1.5096473217469637e-04 1.1355703283983786e-03 0.0000000000000000e+00  1.5096473218024936e-04 1.1355703284077028e-03 0.0000000000000000e+00  1.5096473218218084e-04 1.1355703284132107e-03 0.0000000000000000e+00  1.5096473216045172e-04 1.1355703284080495e-03 0.0000000000000000e+00  1.5096473215845988e-04 1.1355703283962534e-03 0.0000000000000000e+00  1.5096473217095414e-04 1.1355703284047110e-03 0.0000000000000000e+00  1.5096473217306668e-04 1.1355703284048830e-03 0.0000000000000000e+00  1.5096473217010911e-04 1.1355703284031064e-03 0.0000000000000000e+00  1.5096473217119557e-04 1.1355703283999405e-03 0.0000000000000000e+00  1.5096473216709118e-04 1.1355703283941710e-03 0.0000000000000000e+00  1.5096473217059196e-04 1.1355703284004609e-03 0.0000000000000000e+00  1.5096473216721188e-04 1.1355703283946930e-03 0.0000000000000000e+00  1.5096473217427386e-04 1.1355703283910052e-03 0.0000000000000000e+00  1.5096473217916291e-04 1.1355703284103907e-03 0.0000000000000000e+00  1.5096473216419395e-04 1.1355703283949547e-03 0.0000000000000000e+00  1.5096473218332765e-04 1.1355703284041891e-03 0.0000000000000000e+00  1.5096473216908300e-04 1.1355703284017171e-03 0.0000000000000000e+00  1.5096473217083342e-04 1.1355703283922659e-03 0.0000000000000000e+00  1.5096473217397207e-04 1.1355703283972935e-03 0.0000000000000000e+00  1.5096473217928363e-04 1.1355703284021508e-03 0.0000000000000000e+00  1.5096473217119557e-04 1.1355703283941741e-03 0.0000000000000000e+00  1.5096473217529995e-04 1.1355703283959925e-03 0.0000000000000000e+00  1.5096473216926409e-04 1.1355703283991150e-03 0.0000000000000000e+00  1.5096473217584319e-04 1.1355703284083554e-03 0.0000000000000000e+00  1.5096473216684973e-04 1.1355703284050998e-03 0.0000000000000000e+00  1.5096473215990851e-04 1.1355703283934772e-03 0.0000000000000000e+00  1.5096473217330811e-04 1.1355703284041457e-03 0.0000000000000000e+00  1.5096473217216129e-04 1.1355703284031049e-03 0.0000000000000000e+00  1.5096473215713200e-04 1.1355703283806896e-03 0.0000000000000000e+00  1.5096473217101448e-04 1.1355703283981609e-03 0.0000000000000000e+00  1.5096473217831788e-04 1.1355703284057937e-03 0.0000000000000000e+00  1.5096473216860015e-04 1.1355703283982043e-03 0.0000000000000000e+00  1.5096473216322823e-04 1.1355703283846734e-03 0.0000000000000000e+00  1.5096473217047126e-04 1.1355703284033651e-03 0.0000000000000000e+00  1.5096473216208141e-04 1.1355703283880622e-03 0.0000000000000000e+00  1.5096473217216129e-04 1.1355703283897475e-03 0.0000000000000000e+00  1.5096473216944518e-04 1.1355703283994619e-03 0.0000000000000000e+00  1.5096473217053163e-04 1.1355703283940843e-03 0.0000000000000000e+00  1.5096473218091330e-04 1.1355703284081789e-03 0.0000000000000000e+00  1.5096473216636688e-04 1.1355703284045794e-03 0.0000000000000000e+00  1.5096473217379098e-04 1.1355703284053661e-03 0.0000000000000000e+00  1.5096473217451528e-04 1.1355703284058371e-03 0.0000000000000000e+00  1.5096473217167844e-04 1.1355703284021508e-03 0.0000000000000000e+00  1.5096473217185950e-04 1.1355703284107376e-03 0.0000000000000000e+00  1.5096473216745333e-04 1.1355703283983777e-03 0.0000000000000000e+00  1.5096473217149735e-04 1.1355703284116050e-03 0.0000000000000000e+00  1.5096473217204059e-04 1.1355703283997282e-03 0.0000000000000000e+00  1.5096473217288559e-04 1.1355703284090463e-03 0.0000000000000000e+00  1.5096473217216129e-04 1.1355703284060973e-03 0.0000000000000000e+00  1.5096473216944518e-04 1.1355703284032783e-03 0.0000000000000000e+00  1.5096473217469637e-04 5.2590910764948027e-05 0.0000000000000000e+00  -1.6813115685977470e-04 4.1582720235440809e-04 0.0000000000000000e+00  -1.6813115685609796e-04 4.1582720234105072e-04 0.0000000000000000e+00  -1.6813115686334330e-04 4.1582720233150985e-04 0.0000000000000000e+00  -1.6813115685869329e-04 4.1582720234044346e-04 0.0000000000000000e+00  -1.6813115686020724e-04 4.1582720235449472e-04 0.0000000000000000e+00  -1.6813115684658170e-04 4.1582720235857165e-04 0.0000000000000000e+00  -1.6813115686864212e-04 4.1582720234807603e-04 0.0000000000000000e+00  -1.6813115685966653e-04 4.1582720234868372e-04 0.0000000000000000e+00  -1.6813115685793630e-04 4.1582720235701040e-04 0.0000000000000000e+00  -1.6813115686842582e-04 4.1582720234382595e-04 0.0000000000000000e+00  -1.6813115685901771e-04 4.1582720234391323e-04 0.0000000000000000e+00  -1.6813115685350259e-04 4.1582720234373976e-04 0.0000000000000000e+00  -1.6813115685912586e-04 4.1582720235631596e-04 0.0000000000000000e+00  -1.6813115685609796e-04 4.1582720234113713e-04 0.0000000000000000e+00  -1.6813115685350259e-04 4.1582720235718441e-04 0.0000000000000000e+00  -1.6813115685674680e-04 4.1582720234634130e-04 0.0000000000000000e+00  -1.6813115685501657e-04 4.1582720234824950e-04 0.0000000000000000e+00  -1.6813115685469212e-04 4.1582720235874566e-04 0.0000000000000000e+00  -1.6813115685977470e-04 4.1582720234651478e-04 0.0000000000000000e+00  -1.6813115685036659e-04 4.1582720235249957e-04 0.0000000000000000e+00  -1.6813115685469212e-04 4.1582720234851079e-04 0.0000000000000000e+00  -1.6813115686107236e-04 4.1582720234096366e-04 0.0000000000000000e+00  -1.6813115685890959e-04 4.1582720235102506e-04 0.0000000000000000e+00  -1.6813115685642235e-04 4.1582720232847474e-04 0.0000000000000000e+00  -1.6813115686031539e-04 4.1582720234850971e-04 0.0000000000000000e+00  -1.6813115686615491e-04 4.1582720234929033e-04 0.0000000000000000e+00  -1.6813115686258631e-04 4.1582720234876992e-04 0.0000000000000000e+00  -1.6813115686139678e-04 4.1582720234781582e-04 0.0000000000000000e+00  -1.6813115686204562e-04 4.1582720234426191e-04 0.0000000000000000e+00  -1.6813115685793633e-04 4.1582720234486679e-04 0.0000000000000000e+00  -1.6813115686020724e-04 4.1582720233567275e-04 0.0000000000000000e+00  -1.6813115686323515e-04 4.1582720234217797e-04 0.0000000000000000e+00  -1.6813115686107236e-04 4.1582720234451984e-04 0.0000000000000000e+00  -1.6813115686063981e-04 4.1582720234261165e-04 0.0000000000000000e+00  -1.6813115685739564e-04 4.1582720234356802e-04 0.0000000000000000e+00  -1.6813115686431653e-04 4.1582720233437171e-04 0.0000000000000000e+00  -1.6813115685663865e-04 4.1582720234495352e-04 0.0000000000000000e+00  -1.6813115686085608e-04 4.1582720233393803e-04 0.0000000000000000e+00  -1.6813115685858517e-04 4.1582720233818810e-04 0.0000000000000000e+00  -1.6813115685717937e-04 4.1582720235128527e-04 0.0000000000000000e+00  -1.6813115685058286e-04 4.1582720233662913e-04 0.0000000000000000e+00  -1.6813115686182935e-04 4.1582720234582089e-04 0.0000000000000000e+00  -1.6813115685772006e-04 4.1582720234157081e-04 0.0000000000000000e+00  -1.6813115686139678e-04 4.1582720233428498e-04 0.0000000000000000e+00  -1.6813115686053166e-04 4.1582720233957588e-04 0.0000000000000000e+00  -1.6813115685144797e-04 4.1582720235484145e-04 0.0000000000000000e+00  -1.6813115684777126e-04 4.1582720235128754e-04 0.0000000000000000e+00  -1.6813115685739564e-04 4.1582720234451984e-04 0.0000000000000000e+00  -1.6813115686031539e-04 4.1582720234850971e-04 0.0000000000000000e+00  -1.6813115685847702e-04 4.1582720235648944e-04 0.0000000000000000e+00  -1.6813115685977470e-04 1.5728100283579315e-03 0.0000000000000000e+00  3.0650046713157346e-04 1.4098792016658567e-03 0.0000000000000000e+00  3.0650046712794822e-04 1.4098792016544075e-03 0.0000000000000000e+00  3.0650046712441144e-04 1.4098792016516324e-03 0.0000000000000000e+00  3.0650046713113133e-04 1.4098792016521522e-03 0.0000000000000000e+00  3.0650046712830188e-04 1.4098792016702800e-03 0.0000000000000000e+00  3.0650046712228933e-04 1.4098792016704544e-03 0.0000000000000000e+00  3.0650046712361564e-04 1.4098792016555342e-03 0.0000000000000000e+00  3.0650046712131669e-04 1.4098792016628216e-03 0.0000000000000000e+00  3.0650046711963667e-04 1.4098792016603062e-03 0.0000000000000000e+00  3.0650046711495042e-04 1.4098792016565751e-03 0.0000000000000000e+00  3.0650046712520719e-04 1.4098792016819035e-03 0.0000000000000000e+00  3.0650046711194409e-04 1.4098792016491173e-03 0.0000000000000000e+00  3.0650046711724936e-04 1.4098792016401819e-03 0.0000000000000000e+00  3.0650046711362412e-04 1.4098792016390544e-03 0.0000000000000000e+00  3.0650046712449980e-04 1.4098792016498133e-03 0.0000000000000000e+00  3.0650046712237775e-04 1.4098792016499831e-03 0.0000000000000000e+00  3.0650046712388089e-04 1.4098792016498096e-03 0.0000000000000000e+00  3.0650046712520719e-04 1.4098792016414867e-03 0.0000000000000000e+00  3.0650046712600294e-04 1.4098792016687181e-03 0.0000000000000000e+00  3.0650046712626825e-04 1.4098792016512842e-03 0.0000000000000000e+00  3.0650046712361564e-04 1.4098792016473847e-03 0.0000000000000000e+00  3.0650046711884092e-04 1.4098792016596108e-03 0.0000000000000000e+00  3.0650046711892934e-04 1.4098792016533658e-03 0.0000000000000000e+00  3.0650046711450828e-04 1.4098792016453898e-03 0.0000000000000000e+00  3.0650046712609141e-04 1.4098792016544934e-03 0.0000000000000000e+00  3.0650046711477359e-04 1.4098792016532791e-03 0.0000000000000000e+00  3.0650046711945984e-04 1.4098792016352380e-03 0.0000000000000000e+00  3.0650046714032709e-04 1.4098792016582231e-03 0.0000000000000000e+00  3.0650046712326192e-04 1.4098792016487764e-03 0.0000000000000000e+00  3.0650046712520719e-04 1.4098792016514576e-03 0.0000000000000000e+00  3.0650046712052089e-04 1.4098792016452126e-03 0.0000000000000000e+00  3.0650046712228933e-04 1.4098792016479015e-03 0.0000000000000000e+00  3.0650046712892085e-04 1.4098792016686314e-03 0.0000000000000000e+00  3.0650046712352722e-04 1.4098792016483351e-03 0.0000000000000000e+00  3.0650046712741772e-04 1.4098792016473886e-03 0.0000000000000000e+00  3.0650046712211244e-04 1.4098792016404421e-03 0.0000000000000000e+00  3.0650046712317350e-04 1.4098792016532791e-03 0.0000000000000000e+00  3.0650046712865560e-04 1.4098792016458198e-03 0.0000000000000000e+00  3.0650046713263452e-04 1.4098792016647283e-03 0.0000000000000000e+00  3.0650046713121980e-04 1.4098792016589169e-03 0.0000000000000000e+00  3.0650046711397778e-04 1.4098792016331639e-03 0.0000000000000000e+00  3.0650046713979654e-04 1.4098792016626466e-03 0.0000000000000000e+00  3.0650046712122828e-04 1.4098792016561414e-03 0.0000000000000000e+00  3.0650046711990197e-04 1.4098792016271715e-03 0.0000000000000000e+00  3.0650046713077766e-04 1.4098792016531056e-03 0.0000000000000000e+00  3.0650046713086608e-04 1.4098792016500699e-03 0.0000000000000000e+00  3.0650046713183871e-04 1.4098792016663838e-03 0.0000000000000000e+00  3.0650046712662191e-04 1.4098792016551006e-03 0.0000000000000000e+00  3.0650046713015874e-04 1.4098792016543199e-03 0.0000000000000000e+00  3.0650046712467664e-04 1.4098792016578761e-03 0.0000000000000000e+00  3.0650046713157346e-04 6.9323371996203250e-05 0.0000000000000000e+00  -5.6239855584347789e-04 -1.6946047502856137e-03 0.0000000000000000e+00  -5.6239855585758726e-04 -1.6946047502889097e-03 0.0000000000000000e+00  -5.6239855586615744e-04 -1.6946047502925529e-03 0.0000000000000000e+00  -5.6239855585810984e-04 -1.6946047502660112e-03 0.0000000000000000e+00  -5.6239855587159222e-04 -1.6946047502826645e-03 0.0000000000000000e+00  -5.6239855587713152e-04 -1.6946047502968903e-03 0.0000000000000000e+00  -5.6239855586281300e-04 -1.6946047502871733e-03 0.0000000000000000e+00  -5.6239855585403379e-04 -1.6946047502904718e-03 0.0000000000000000e+00  -5.6239855584880804e-04 -1.6946047502856146e-03 0.0000000000000000e+00  -5.6239855585466078e-04 -1.6946047503072961e-03 0.0000000000000000e+00  -5.6239855584776298e-04 -1.6946047502941148e-03 0.0000000000000000e+00  -5.6239855586082729e-04 -1.6946047503121559e-03 0.0000000000000000e+00  -5.6239855584358229e-04 -1.6946047502845712e-03 0.0000000000000000e+00  -5.6239855584933063e-04 -1.6946047502840508e-03 0.0000000000000000e+00  -5.6239855585581047e-04 -1.6946047502818004e-03 0.0000000000000000e+00  -5.6239855586720251e-04 -1.6946047503076430e-03 0.0000000000000000e+00  -5.6239855584692673e-04 -1.6946047502621932e-03 0.0000000000000000e+00  -5.6239855586124525e-04 -1.6946047502948108e-03 0.0000000000000000e+00  -5.6239855585622854e-04 -1.6946047502791935e-03 0.0000000000000000e+00  -5.6239855586124525e-04 -1.6946047502942856e-03 0.0000000000000000e+00  -5.6239855586030459e-04 -1.6946047502974129e-03 0.0000000000000000e+00  -5.6239855585999104e-04 -1.6946047502904692e-03 0.0000000000000000e+00  -5.6239855586187235e-04 -1.6946047502847447e-03 0.0000000000000000e+00  -5.6239855586354452e-04 -1.6946047502847494e-03 0.0000000000000000e+00  -5.6239855586960640e-04 -1.6946047503043470e-03 0.0000000000000000e+00  -5.6239855585946846e-04 -1.69460