<?xml version="1.0"?>
<VTKFile type="UnstructuredGrid"  version="0.1"  >
<UnstructuredGrid>
<Piece  NumberOfPoints="2601" NumberOfCells="5000">
<Points>
<DataArray  type="Float64"  NumberOfComponents="3"  format="ascii">0 0 0  0.02 0 0  0.04 0 0  0.06 0 0  0.08 0 0  0.1 0 0  0.12 0 0  0.14 0 0  0.16 0 0  0.18 0 0  0.2 0 0  0.22 0 0  0.24 0 0  0.26 0 0  0.28 0 0  0.3 0 0  0.32 0 0  0.34 0 0  0.36 0 0  0.38 0 0  0.4 0 0  0.42 0 0  0.44 0 0  0.46 0 0  0.48 0 0  0.5 0 0  0.52 0 0  0.54 0 0  0.5600000000000001 0 0  0.58 0 0  0.6 0 0  0.62 0 0  0.64 0 0  0.66 0 0  0.68 0 0  0.7 0 0  0.72 0 0  0.74 0 0  0.76 0 0  0.78 0 0  0.8 0 0  0.82 0 0  0.84 0 0  0.86 0 0  0.88 0 0  0.9 0 0  0.92 0 0  0.9399999999999999 0 0  0.96 0 0  0.98 0 0  1 0 0  0 0.01313563088723984 0  0.02 0.01313563088723984 0  0.04 0.01313563088723984 0  0.06 0.01313563088723984 0  0.08 0.01313563088723984 0  0.1 0.01313563088723984 0  0.12 0.01313563088723984 0  0.14 0.01313563088723984 0  0.16 0.01313563088723984 0  0.18 0.01313563088723984 0  0.2 0.01313563088723984 0  0.22 0.01313563088723984 0  0.24 0.01313563088723984 0  0.26 0.01313563088723984 0  0.28 0.01313563088723984 0  0.3 0.01313563088723984 0  0.32 0.01313563088723984 0  0.34 0.01313563088723984 0  0.36 0.01313563088723984 0  0.38 0.01313563088723984 0  0.4 0.01313563088723984 0  0.42 0.01313563088723984 0  0.44 0.01313563088723984 0  0.46 0.01313563088723984 0  0.48 0.01313563088723984 0  0.5 0.01313563088723984 0  0.52 0.01313563088723984 0  0.54 0.01313563088723984 0  0.5600000000000001 0.01313563088723984 0  0.58 0.01313563088723984 0  0.6 0.01313563088723984 0  0.62 0.01313563088723984 0  0.64 0.01313563088723984 0  0.66 0.01313563088723984 0  0.68 0.01313563088723984 0  0.7 0.01313563088723984 0  0.72 0.01313563088723984 0  0.74 0.01313563088723984 0  0.76 0.01313563088723984 0  0.78 0.01313563088723984 0  0.8 0.01313563088723984 0  0.82 0.01313563088723984 0  0.84 0.01313563088723984 0  0.86 0.01313563088723984 0  0.88 0.01313563088723984 0  0.9 0.01313563088723984 0  0.92 0.01313563088723984 0  0.9399999999999999 0.01313563088723984 0  0.96 0.01313563088723984 0  0.98 0.01313563088723984 0  1 0.01313563088723984 0  0 0.02664639863733726 0  0.02 0.02664639863733726 0  0.04 0.02664639863733726 0  0.06 0.02664639863733726 0  0.08 0.02664639863733726 0  0.1 0.02664639863733726 0  0.12 0.02664639863733726 0  0.14 0.02664639863733726 0  0.16 0.02664639863733726 0  0.18 0.02664639863733726 0  0.2 0.02664639863733726 0  0.22 0.02664639863733726 0  0.24 0.02664639863733726 0  0.26 0.02664639863733726 0  0.28 0.02664639863733726 0  0.3 0.02664639863733726 0  0.32 0.02664639863733726 0  0.34 0.02664639863733726 0  0.36 0.02664639863733726 0  0.38 0.02664639863733726 0  0.4 0.02664639863733726 0  0.42 0.02664639863733726 0  0.44 0.02664639863733726 0  0.46 0.02664639863733726 0  0.48 0.02664639863733726 0  0.5 0.02664639863733726 0  0.52 0.02664639863733726 0  0.54 0.02664639863733726 0  0.5600000000000001 0.02664639863733726 0  0.58 0.02664639863733726 0  0.6 0.02664639863733726 0  0.62 0.02664639863733726 0  0.64 0.02664639863733726 0  0.66 0.02664639863733726 0  0.68 0.02664639863733726 0  0.7 0.02664639863733726 0  0.72 0.02664639863733726 0  0.74 0.02664639863733726 0  0.76 0.02664639863733726 0  0.78 0.02664639863733726 0  0.8 0.02664639863733726 0  0.82 0.02664639863733726 0  0.84 0.02664639863733726 0  0.86 0.02664639863733726 0  0.88 0.02664639863733726 0  0.9 0.02664639863733726 0  0.92 0.02664639863733726 0  0.9399999999999999 0.02664639863733726 0  0.96 0.02664639863733726 0  0.98 0.02664639863733726 0  1 0.02664639863733726 0  0 0.04101652939099896 0  0.02 0.04101652939099896 0  0.04 0.04101652939099896 0  0.06 0.04101652939099896 0  0.08 0.04101652939099896 0  0.1 0.04101652939099896 0  0.12 0.04101652939099896 0  0.14 0.04101652939099896 0  0.16 0.04101652939099896 0  0.18 0.04101652939099896 0  0.2 0.04101652939099896 0  0.22 0.04101652939099896 0  0.24 0.04101652939099896 0  0.26 0.04101652939099896 0  0.28 0.04101652939099896 0  0.3 0.04101652939099896 0  0.32 0.04101652939099896 0  0.34 0.04101652939099896 0  0.36 0.04101652939099896 0  0.38 0.04101652939099896 0  0.4 0.04101652939099896 0  0.42 0.04101652939099896 0  0.44 0.04101652939099896 0  0.46 0.04101652939099896 0  0.48 0.04101652939099896 0  0.5 0.04101652939099896 0  0.52 0.04101652939099896 0  0.54 0.04101652939099896 0  0.5600000000000001 0.04101652939099896 0  0.58 0.04101652939099896 0  0.6 0.04101652939099896 0  0.62 0.04101652939099896 0  0.64 0.04101652939099896 0  0.66 0.04101652939099896 0  0.68 0.04101652939099896 0  0.7 0.04101652939099896 0  0.72 0.04101652939099896 0  0.74 0.04101652939099896 0  0.76 0.04101652939099896 0  0.78 0.04101652939099896 0  0.8 0.04101652939099896 0  0.82 0.04101652939099896 0  0.84 0.04101652939099896 0  0.86 0.04101652939099896 0  0.88 0.04101652939099896 0  0.9 0.04101652939099896 0  0.92 0.04101652939099896 0  0.9399999999999999 0.04101652939099896 0  0.96 0.04101652939099896 0  0.98 0.04101652939099896 0  1 0.04101652939099896 0  0 0.05705811164099547 0  0.02 0.05705811164099547 0  0.04 0.05705811164099547 0  0.06 0.05705811164099547 0  0.08 0.05705811164099547 0  0.1 0.05705811164099547 0  0.12 0.05705811164099547 0  0.14 0.05705811164099547 0  0.16 0.05705811164099547 0  0.18 0.05705811164099547 0  0.2 0.05705811164099547 0  0.22 0.05705811164099547 0  0.24 0.05705811164099547 0  0.26 0.05705811164099547 0  0.28 0.05705811164099547 0  0.3 0.05705811164099547 0  0.32 0.05705811164099547 0  0.34 0.05705811164099547 0  0.36 0.05705811164099547 0  0.38 0.05705811164099547 0  0.4 0.05705811164099547 0  0.42 0.05705811164099547 0  0.44 0.05705811164099547 0  0.46 0.05705811164099547 0  0.48 0.05705811164099547 0  0.5 0.05705811164099547 0  0.52 0.05705811164099547 0  0.54 0.05705811164099547 0  0.5600000000000001 0.05705811164099547 0  0.58 0.05705811164099547 0  0.6 0.05705811164099547 0  0.62 0.05705811164099547 0  0.64 0.05705811164099547 0  0.66 0.05705811164099547 0  0.68 0.05705811164099547 0  0.7 0.05705811164099547 0  0.72 0.05705811164099547 0  0.74 0.05705811164099547 0  0.76 0.05705811164099547 0  0.78 0.05705811164099547 0  0.8 0.05705811164099547 0  0.82 0.05705811164099547 0  0.84 0.05705811164099547 0  0.86 0.05705811164099547 0  0.88 0.05705811164099547 0  0.9 0.05705811164099547 0  0.92 0.05705811164099547 0  0.9399999999999999 0.05705811164099547 0  0.96 0.05705811164099547 0  0.98 0.05705811164099547 0  1 0.05705811164099547 0  0 0.07667714377545 0  0.02 0.07667714377545 0  0.04 0.07667714377545 0  0.06 0.07667714377545 0  0.08 0.07667714377545 0  0.1 0.07667714377545 0  0.12 0.07667714377545 0  0.14 0.07667714377545 0  0.16 0.07667714377545 0  0.18 0.07667714377545 0  0.2 0.07667714377545 0  0.22 0.07667714377545 0  0.24 0.07667714377545 0  0.26 0.07667714377545 0  0.28 0.07667714377545 0  0.3 0.07667714377545 0  0.32 0.07667714377545 0  0.34 0.07667714377545 0  0.36 0.07667714377545 0  0.38 0.07667714377545 0  0.4 0.07667714377545 0  0.42 0.07667714377545 0  0.44 0.07667714377545 0  0.46 0.07667714377545 0  0.48 0.07667714377545 0  0.5 0.07667714377545 0  0.52 0.07667714377545 0  0.54 0.07667714377545 0  0.5600000000000001 0.07667714377545 0  0.58 0.07667714377545 0  0.6 0.07667714377545 0  0.62 0.07667714377545 0  0.64 0.07667714377545 0  0.66 0.07667714377545 0  0.68 0.07667714377545 0  0.7 0.07667714377545 0  0.72 0.07667714377545 0  0.74 0.07667714377545 0  0.76 0.07667714377545 0  0.78 0.07667714377545 0  0.8 0.07667714377545 0  0.82 0.07667714377545 0  0.84 0.07667714377545 0  0.86 0.07667714377545 0  0.88 0.07667714377545 0  0.9 0.07667714377545 0  0.92 0.07667714377545 0  0.9399999999999999 0.07667714377545 0  0.96 0.07667714377545 0  0.98 0.07667714377545 0  1 0.07667714377545 0  0 0.1098730133816912 0  0.02 0.1098730133816912 0  0.04 0.1098730133816912 0  0.06 0.1098730133816912 0  0.08 0.1098730133816912 0  0.1 0.1098730133816912 0  0.12 0.1098730133816912 0  0.14 0.1098730133816912 0  0.16 0.1098730133816912 0  0.18 0.1098730133816912 0  0.2 0.1098730133816912 0  0.22 0.1098730133816912 0  0.24 0.1098730133816912 0  0.26 0.1098730133816912 0  0.28 0.1098730133816912 0  0.3 0.1098730133816912 0  0.32 0.1098730133816912 0  0.34 0.1098730133816912 0  0.36 0.1098730133816912 0  0.38 0.1098730133816912 0  0.4 0.1098730133816912 0  0.42 0.1098730133816912 0  0.44 0.1098730133816912 0  0.46 0.1098730133816912 0  0.48 0.1098730133816912 0  0.5 0.1098730133816912 0  0.52 0.1098730133816912 0  0.54 0.1098730133816912 0  0.5600000000000001 0.1098730133816912 0  0.58 0.1098730133816912 0  0.6 0.1098730133816912 0  0.62 0.1098730133816912 0  0.64 0.1098730133816912 0  0.66 0.1098730133816912 0  0.68 0.1098730133816912 0  0.7 0.1098730133816912 0  0.72 0.1098730133816912 0  0.74 0.1098730133816912 0  0.76 0.1098730133816912 0  0.78 0.1098730133816912 0  0.8 0.1098730133816912 0  0.82 0.1098730133816912 0  0.84 0.1098730133816912 0  0.86 0.1098730133816912 0  0.88 0.1098730133816912 0  0.9 0.1098730133816912 0  0.92 0.1098730133816912 0  0.9399999999999999 0.1098730133816912 0  0.96 0.1098730133816912 0  0.98 0.1098730133816912 0  1 0.1098730133816912 0  0 0.1603283563168221 0  0.02 0.1603283563168221 0  0.04 0.1603283563168221 0  0.06 0.1603283563168221 0  0.08 0.1603283563168221 0  0.1 0.1603283563168221 0  0.12 0.1603283563168221 0  0.14 0.1603283563168221 0  0.16 0.1603283563168221 0  0.18 0.1603283563168221 0  0.2 0.1603283563168221 0  0.22 0.1603283563168221 0  0.24 0.1603283563168221 0  0.26 0.1603283563168221 0  0.28 0.1603283563168221 0  0.3 0.1603283563168221 0  0.32 0.1603283563168221 0  0.34 0.1603283563168221 0  0.36 0.1603283563168221 0  0.38 0.1603283563168221 0  0.4 0.1603283563168221 0  0.42 0.1603283563168221 0  0.44 0.1603283563168221 0  0.46 0.1603283563168221 0  0.48 0.1603283563168221 0  0.5 0.1603283563168221 0  0.52 0.1603283563168221 0  0.54 0.1603283563168221 0  0.5600000000000001 0.1603283563168221 0  0.58 0.1603283563168221 0 
[...]
<PointData  Vectors="u_paraw"> 
<DataArray  type="Float64"  Name="u_paraw"  NumberOfComponents="3" format="ascii">-3.8010745814751404e-07 -5.2216507014644139e-05 0.0000000000000000e+00  -3.8010746392524584e-07 -5.2216507016541493e-05 0.0000000000000000e+00  -3.8010745770180324e-07 -5.2216507021680611e-05 0.0000000000000000e+00  -3.8010745268343055e-07 -5.2216507027968977e-05 0.0000000000000000e+00  -3.8010746247255898e-07 -5.2216507026873933e-05 0.0000000000000000e+00  -3.8010744494126989e-07 -5.2216507014936894e-05 0.0000000000000000e+00  -3.8010747288898392e-07 -5.2216507028272506e-05 0.0000000000000000e+00  -3.8010745656276468e-07 -5.2216507023773141e-05 0.0000000000000000e+00  -3.8010746047511447e-07 -5.2216507021442107e-05 0.0000000000000000e+00  -3.8010746082177837e-07 -5.2216507026602835e-05 0.0000000000000000e+00  -3.8010745786688128e-07 -5.2216507019121914e-05 0.0000000000000000e+00  -3.8010745441675001e-07 -5.2216507022103470e-05 0.0000000000000000e+00  -3.8010746085479402e-07 -5.2216507043245338e-05 0.0000000000000000e+00  -3.8010745682688957e-07 -5.2216507019544678e-05 0.0000000000000000e+00  -3.8010744438000452e-07 -5.2216507026537938e-05 0.0000000000000000e+00  -3.8010745042186115e-07 -5.2216507018221952e-05 0.0000000000000000e+00  -3.8010746039257545e-07 -5.2216507017441326e-05 0.0000000000000000e+00  -3.8010746092082522e-07 -5.2216507041218036e-05 0.0000000000000000e+00  -3.8010744583269139e-07 -5.2216507018102690e-05 0.0000000000000000e+00  -3.8010745316215684e-07 -5.2216507018785737e-05 0.0000000000000000e+00  -3.8010744639395675e-07 -5.2216507029476126e-05 0.0000000000000000e+00  -3.8010746037606768e-07 -5.2216507023914013e-05 0.0000000000000000e+00  -3.8010745035582996e-07 -5.2216507025247582e-05 0.0000000000000000e+00  -3.8010744317493472e-07 -5.2216507010242380e-05 0.0000000000000000e+00  -3.8010746062368474e-07 -5.2216507018709843e-05 0.0000000000000000e+00  -3.8010744660855821e-07 -5.2216507026667887e-05 0.0000000000000000e+00  -3.8010745520912467e-07 -5.2216507022255184e-05 0.0000000000000000e+00  -3.8010747280644490e-07 -5.2216507029595233e-05 0.0000000000000000e+00  -3.8010746054114572e-07 -5.2216507017680142e-05 0.0000000000000000e+00  -3.8010745156089971e-07 -5.2216507017842481e-05 0.0000000000000000e+00  -3.8010745900591983e-07 -5.2216507014654927e-05 0.0000000000000000e+00  -3.8010746544396379e-07 -5.2216507033660991e-05 0.0000000000000000e+00  -3.8010745674435055e-07 -5.2216507024477798e-05 0.0000000000000000e+00  -3.8010745340977390e-07 -5.2216507027914719e-05 0.0000000000000000e+00  -3.8010745223771975e-07 -5.2216507017799404e-05 0.0000000000000000e+00  -3.8010745486246076e-07 -5.2216507017007645e-05 0.0000000000000000e+00  -3.8010745024027534e-07 -5.2216507016899225e-05 0.0000000000000000e+00  -3.8010747425913176e-07 -5.2216507037152122e-05 0.0000000000000000e+00  -3.8010746139955156e-07 -5.2216507035547503e-05 0.0000000000000000e+00  -3.8010745243581338e-07 -5.2216507016129442e-05 0.0000000000000000e+00  -3.8010746278620718e-07 -5.2216507018081297e-05 0.0000000000000000e+00  -3.8010745502753880e-07 -5.2216507022190132e-05 0.0000000000000000e+00  -3.8010745481293734e-07 -5.2216507014969345e-05 0.0000000000000000e+00  -3.8010746103637984e-07 -5.2216507032468368e-05 0.0000000000000000e+00  -3.8010746092082522e-07 -5.2216507026505256e-05 0.0000000000000000e+00  -3.8010745182502459e-07 -5.2216507022363604e-05 0.0000000000000000e+00  -3.8010745723958467e-07 -5.2216507015609316e-05 0.0000000000000000e+00  -3.8010746343001162e-07 -5.2216507017679851e-05 0.0000000000000000e+00  -3.8010745230375094e-07 -5.2216507032967101e-05 0.0000000000000000e+00  -3.8010744695522212e-07 -5.2216507015500604e-05 0.0000000000000000e+00  -3.8010745814751399e-07 2.6398866157496157e-15 0.0000000000000000e+00  2.0814564619920440e-05 -1.4564845254956199e-04 0.0000000000000000e+00  2.0814564623451320e-05 -1.4564845253726714e-04 0.0000000000000000e+00  2.0814564615362396e-05 -1.4564845253113061e-04 0.0000000000000000e+00  2.0814564621300697e-05 -1.4564845254323025e-04 0.0000000000000000e+00  2.0814564618379697e-05 -1.4564845254650454e-04 0.0000000000000000e+00  2.0814564623034038e-05 -1.4564845254969220e-04 0.0000000000000000e+00  2.0814564617095741e-05 -1.4564845253772240e-04 0.0000000000000000e+00  2.0814564626853807e-05 -1.4564845252698901e-04 0.0000000000000000e+00  2.0814564617545125e-05 -1.4564845254331710e-04 0.0000000000000000e+00  2.0814564619438962e-05 -1.4564845255036419e-04 0.0000000000000000e+00  2.0814564617384630e-05 -1.4564845255045115e-04 0.0000000000000000e+00  2.0814564625120466e-05 -1.4564845253759251e-04 0.0000000000000000e+00  2.0814564611029047e-05 -1.4564845257050867e-04 0.0000000000000000e+00  2.0814564632278525e-05 -1.4564845254260131e-04 0.0000000000000000e+00  2.0814564624767379e-05 -1.4564845254643979e-04 0.0000000000000000e+00  2.0814564625601950e-05 -1.4564845254672127e-04 0.0000000000000000e+00  2.0814564618411796e-05 -1.4564845255754161e-04 0.0000000000000000e+00  2.0814564620080939e-05 -1.4564845254938882e-04 0.0000000000000000e+00  2.0814564631219259e-05 -1.4564845254769706e-04 0.0000000000000000e+00  2.0814564629421720e-05 -1.4564845253839460e-04 0.0000000000000000e+00  2.0814564614367336e-05 -1.4564845256747331e-04 0.0000000000000000e+00  2.0814564626918006e-05 -1.4564845254960525e-04 0.0000000000000000e+00  2.0814564628555049e-05 -1.4564845253993417e-04 0.0000000000000000e+00  2.0814564629036533e-05 -1.4564845255086333e-04 0.0000000000000000e+00  2.0814564622937744e-05 -1.4564845254476971e-04 0.0000000000000000e+00  2.0814564628651347e-05 -1.4564845253290854e-04 0.0000000000000000e+00  2.0814564620658720e-05 -1.4564845253978238e-04 0.0000000000000000e+00  2.0814564620241435e-05 -1.4564845254409750e-04 0.0000000000000000e+00  2.0814564629453819e-05 -1.4564845252826899e-04 0.0000000000000000e+00  2.0814564625794545e-05 -1.4564845254843431e-04 0.0000000000000000e+00  2.0814564621364895e-05 -1.4564845254535518e-04 0.0000000000000000e+00  2.0814564609263606e-05 -1.4564845255012567e-04 0.0000000000000000e+00  2.0814564624767379e-05 -1.4564845253874155e-04 0.0000000000000000e+00  2.0814564625698248e-05 -1.4564845255743319e-04 0.0000000000000000e+00  2.0814564628908140e-05 -1.4564845254837010e-04 0.0000000000000000e+00  2.0814564629582216e-05 -1.4564845254114847e-04 0.0000000000000000e+00  2.0814564620466125e-05 -1.4564845254197247e-04 0.0000000000000000e+00  2.0814564609841388e-05 -1.4564845254780548e-04 0.0000000000000000e+00  2.0814564632278525e-05 -1.4564845253607441e-04 0.0000000000000000e+00  2.0814564633016799e-05 -1.4564845254346867e-04 0.0000000000000000e+00  2.0814564624959974e-05 -1.4564845254164805e-04 0.0000000000000000e+00  2.0814564623740216e-05 -1.4564845254019438e-04 0.0000000000000000e+00  2.0814564625056271e-05 -1.4564845254921494e-04 0.0000000000000000e+00  2.0814564613179673e-05 -1.4564845255582857e-04 0.0000000000000000e+00  2.0814564624125403e-05 -1.4564845253444810e-04 0.0000000000000000e+00  2.0814564624895776e-05 -1.4564845254993051e-04 0.0000000000000000e+00  2.0814564623515522e-05 -1.4564845254119268e-04 0.0000000000000000e+00  2.0814564626468621e-05 -1.4564845253661651e-04 0.0000000000000000e+00  2.0814564622167367e-05 -1.4564845254453118e-04 0.0000000000000000e+00  2.0814564624735280e-05 -1.4564845254032448e-04 0.0000000000000000e+00  2.0814564619920446e-05 -9.7510818613944501e-05 0.0000000000000000e+00  -4.9573348286287656e-05 -5.8712208204471719e-04 0.0000000000000000e+00  -4.9573348286891238e-05 -5.8712208204111764e-04 0.0000000000000000e+00  -4.9573348290512758e-05 -5.8712208203205382e-04 0.0000000000000000e+00  -4.9573348294617148e-05 -5.8712208204927073e-04 0.0000000000000000e+00  -4.9573348298419743e-05 -5.8712208203244391e-04 0.0000000000000000e+00  -4.9573348300170147e-05 -5.8712208205226356e-04 0.0000000000000000e+00  -4.9573348276207761e-05 -5.8712208202797668e-04 0.0000000000000000e+00  -4.9573348286891238e-05 -5.8712208203149025e-04 0.0000000000000000e+00  -4.9573348301980906e-05 -5.8712208202715344e-04 0.0000000000000000e+00  -4.9573348290814552e-05 -5.8712208203409158e-04 0.0000000000000000e+00  -4.9573348298721537e-05 -5.8712208203999040e-04 0.0000000000000000e+00  -4.9573348282243623e-05 -5.8712208203725821e-04 0.0000000000000000e+00  -4.9573348287555190e-05 -5.8712208203998964e-04 0.0000000000000000e+00  -4.9573348274819508e-05 -5.8712208203864523e-04 0.0000000000000000e+00  -4.9573348280312150e-05 -5.8712208204333050e-04 0.0000000000000000e+00  -4.9573348284657971e-05 -5.8712208205057145e-04 0.0000000000000000e+00  -4.9573348295522531e-05 -5.8712208205031124e-04 0.0000000000000000e+00  -4.9573348280432863e-05 -5.8712208202923587e-04 0.0000000000000000e+00  -4.9573348287494827e-05 -5.8712208204515044e-04 0.0000000000000000e+00  -4.9573348275302377e-05 -5.8712208204003300e-04 0.0000000000000000e+00  -4.9573348299325126e-05 -5.8712208204350397e-04 0.0000000000000000e+00  -4.9573348288400210e-05 -5.8712208204515044e-04 0.0000000000000000e+00  -4.9573348280131075e-05 -5.8712208204246162e-04 0.0000000000000000e+00  -4.9573348288219135e-05 -5.8712208204467491e-04 0.0000000000000000e+00  -4.9573348296971133e-05 -5.8712208205365058e-04 0.0000000000000000e+00  -4.9573348285442636e-05 -5.8712208204380603e-04 0.0000000000000000e+00  -4.9573348293470333e-05 -5.8712208204705863e-04 0.0000000000000000e+00  -4.9573348288038053e-05 -5.8712208202684911e-04 0.0000000000000000e+00  -4.9573348291719936e-05 -5.8712208204350570e-04 0.0000000000000000e+00  -4.9573348305783502e-05 -5.8712208204632138e-04 0.0000000000000000e+00  -4.9573348285321916e-05 -5.8712208203578293e-04 0.0000000000000000e+00  -4.9573348296126113e-05 -5.8712208205430111e-04 0.0000000000000000e+00  -4.9573348282907568e-05 -5.8712208202112452e-04 0.0000000000000000e+00  -4.9573348301498037e-05 -5.8712208205065819e-04 0.0000000000000000e+00  -4.9573348290512758e-05 -5.8712208203535250e-04 0.0000000000000000e+00  -4.9573348299989071e-05 -5.8712208204918367e-04 0.0000000000000000e+00  -4.9573348295763962e-05 -5.8712208204237488e-04 0.0000000000000000e+00  -4.9573348289124512e-05 -5.8712208204423971e-04 0.0000000000000000e+00  -4.9573348274517720e-05 -5.8712208203248696e-04 0.0000000000000000e+00  -4.9573348290210970e-05 -5.8712208204692853e-04 0.0000000000000000e+00  -4.9573348291840648e-05 -5.8712208203743417e-04 0.0000000000000000e+00  -4.9573348296850421e-05 -5.8712208204107384e-04 0.0000000000000000e+00  -4.9573348287193033e-05 -5.8712208204397950e-04 0.0000000000000000e+00  -4.9573348304395249e-05 -5.8712208204805610e-04 0.0000000000000000e+00  -4.9573348282786855e-05 -5.8712208204502033e-04 0.0000000000000000e+00  -4.9573348300230503e-05 -5.8712208205282659e-04 0.0000000000000000e+00  -4.9573348281821116e-05 -5.8712208203409483e-04 0.0000000000000000e+00  -4.9573348307352823e-05 -5.8712208204580096e-04 0.0000000000000000e+00  -4.9573348293228901e-05 -5.8712208204280856e-04 0.0000000000000000e+00  -4.9573348284235458e-05 -5.8712208203560946e-04 0.0000000000000000e+00  -4.9573348286287656e-05 -2.6320045798937678e-04 0.0000000000000000e+00  1.0612339790175114e-04 5.5858472352687122e-05 0.0000000000000000e+00  1.0612339790077788e-04 5.5858472341931836e-05 0.0000000000000000e+00  1.0612339789861510e-04 5.5858472346789076e-05 0.0000000000000000e+00  1.0612339788942327e-04 5.5858472334819456e-05 0.0000000000000000e+00  1.0612339791234877e-04 5.5858472344880853e-05 0.0000000000000000e+00  1.0612339791645804e-04 5.5858472343232920e-05 0.0000000000000000e+00  1.0612339790077788e-04 5.5858472352079928e-05 0.0000000000000000e+00  1.0612339789677673e-04 5.5858472331957217e-05 0.0000000000000000e+00  1.0612339790618482e-04 5.5858472356069873e-05 0.0000000000000000e+00  1.0612339788790932e-04 5.5858472336901098e-05 0.0000000000000000e+00  1.0612339791072667e-04 5.5858472363442448e-05 0.0000000000000000e+00  1.0612339791818828e-04 5.5858472346268686e-05 0.0000000000000000e+00  1.0612339789818254e-04 5.5858472350258468e-05 0.0000000000000000e+00  1.0612339788790932e-04 5.5858472314956846e-05 0.0000000000000000e+00  1.0612339791418713e-04 5.5858472343059515e-05 0.0000000000000000e+00  1.0612339791299761e-04 5.5858472361100490e-05 0.0000000000000000e+00  1.0612339789742557e-04 5.5858472341498115e-05 0.0000000000000000e+00  1.0612339791526853e-04 5.5858472352253549e-05 0.0000000000000000e+00  1.0612339789774999e-04 5.5858472352773817e-05 0.0000000000000000e+00  1.0612339790542786e-04 5.5858472331263246e-05 0.0000000000000000e+00  1.0612339791159179e-04 5.5858472350258617e-05 0.0000000000000000e+00  1.0612339789991277e-04 5.5858472345401243e-05 0.0000000000000000e+00  1.0612339789839881e-04 5.5858472334038804e-05 0.0000000000000000e+00  1.0612339790337321e-04 5.5858472352253549e-05 0.0000000000000000e+00  1.0612339790737437e-04 5.5858472340890962e-05 0.0000000000000000e+00  1.0612339790845576e-04 5.5858472339936864e-05 0.0000000000000000e+00  1.0612339789688487e-04 5.5858472356330000e-05 0.0000000000000000e+00  1.0612339790283252e-04 5.5858472342365477e-05 0.0000000000000000e+00  1.0612339789883137e-04 5.5858472351559809e-05 0.0000000000000000e+00  1.0612339788650352e-04 5.5858472324671297e-05 0.0000000000000000e+00  1.0612339790358950e-04 5.5858472346095132e-05 0.0000000000000000e+00  1.0612339789407325e-04 5.5858472340283808e-05 0.0000000000000000e+00  1.0612339790910459e-04 5.5858472344967562e-05 0.0000000000000000e+00  1.0612339790207555e-04 5.5858472349391107e-05 0.0000000000000000e+00  1.0612339791007785e-04 5.5858472340631051e-05 0.0000000000000000e+00  1.0612339789796626e-04 5.5858472340630753e-05 0.0000000000000000e+00  1.0612339789212674e-04 5.5858472340890962e-05 0.0000000000000000e+00  1.0612339790942901e-04 5.5858472345401243e-05 0.0000000000000000e+00  1.0612339789245117e-04 5.5858472327620327e-05 0.0000000000000000e+00  1.0612339790477903e-04 5.5858472351386039e-05 0.0000000000000000e+00  1.0612339791483597e-04 5.5858472340631051e-05 0.0000000000000000e+00  1.0612339790369763e-04 5.5858472351559511e-05 0.0000000000000000e+00  1.0612339789591161e-04 5.5858472341671587e-05 0.0000000000000000e+00  1.0612339790986157e-04 5.5858472344360409e-05 0.0000000000000000e+00  1.0612339791375459e-04 5.5858472339416447e-05 0.0000000000000000e+00  1.0612339790066974e-04 5.5858472319206918e-05 0.0000000000000000e+00  1.0612339792456850e-04 5.5858472350172030e-05 0.0000000000000000e+00  1.0612339790986157e-04 5.5858472357457571e-05 0.0000000000000000e+00  1.0612339790066974e-04 5.5858472343839991e-05 0.0000000000000000e+00  1.0612339790823948e-04 5.5858472361707643e-05 0.0000000000000000e+00  1.0612339790175114e-04 -6.7944989206327074e-04 0.0000000000000000e+00  -1.9191283848742576e-04 -1.1529486407136494e-03 0.0000000000000000e+00  -1.9191283848503840e-04 -1.1529486406998584e-03 0.0000000000000000e+00  -1.9191283850219200e-04 -1.1529486407255327e-03 0.0000000000000000e+00  -1.9191283849609095e-04 -1.1529486407331649e-03 0.0000000000000000e+00  -1.9191283848769101e-04 -1.1529486407063634e-03 0.0000000000000000e+00  -1.9191283849591411e-04 -1.1529486406893640e-03 0.0000000000000000e+00  -1.9191283850369511e-04 -1.1529486407087914e-03 0.0000000000000000e+00  -1.9191283850519827e-04 -1.1529486406995988e-03 0.0000000000000000e+00  -1.9191283852022973e-04 -1.1529486407162522e-03 0.0000000000000000e+00  -1.9191283852005290e-04 -1.1529486407369806e-03 0.0000000000000000e+00  -1.9191283848963626e-04 -1.1529486407173798e-03 0.0000000000000000e+00  -1.9191283853216650e-04 -1.1529486407170328e-03 0.0000000000000000e+00  -1.9191283851386346e-04 -1.1529486407241437e-03 0.0000000000000000e+00  -1.9191283850599405e-04 -1.1529486407152966e-03 0.0000000000000000e+00  -1.9191283849494150e-04 -1.1529486407036772e-03 0.0000000000000000e+00  -1.9191283849573728e-04 -1.1529486407304754e-03 0.0000000000000000e+00  -1.9191283849255415e-04 -1.1529486407075770e-03 0.0000000000000000e+00  -1.9191283849971620e-04 -1.1529486407122641e-03 0.0000000000000000e+00  -1.9191283849432256e-04 -1.1529486407145159e-03 0.0000000000000000e+00  -1.9191283849175837e-04 -1.1529486407023729e-03 0.0000000000000000e+00  -1.9191283849821306e-04 -1.1529486407074936e-03 0.0000000000000000e+00  -1.9191283850148461e-04 -1.1529486407185925e-03 0.0000000000000000e+00  -1.9191283849193520e-04 -1.1529486407083577e-03 0.0000000000000000e+00  -1.9191283850104250e-04 -1.1529486407140855e-03 0.0000000000000000e+00  -1.9191283850254566e-04 -1.1529486407126945e-03 0.0000000000000000e+00  -1.9191283850307616e-04 -1.1529486407198068e-03 0.0000000000000000e+00  -1.9191283849334992e-04 -1.1529486407049750e-03 0.0000000000000000e+00  -1.9191283847840688e-04 -1.1529486407195466e-03 0.0000000000000000e+00  -1.9191283848707207e-04 -1.1529486407267522e-03 0.0000000000000000e+00  -1.9191283848539210e-04 -1.1529486407046280e-03 0.0000000000000000e+00  -1.9191283850183828e-04 -1.1529486407270927e-03 0.0000000000000000e+00  -1.9191283849246573e-04 -1.1529486407080107e-03 0.0000000000000000e+00  -1.9191283849052048e-04 -1.1529486407104393e-03 0.0000000000000000e+00  -1.9191283849405728e-04 -1.1529486407207609e-03 0.0000000000000000e+00  -1.9191283849494150e-04 -1.1529486407090581e-03 0.0000000000000000e+00  -1.9191283848415421e-04 -1.1529486407139088e-03 0.0000000000000000e+00  -1.9191283848998995e-04 -1.1529486407021127e-03 0.0000000000000000e+00  -1.9191283848919418e-04 -1.1529486407138221e-03 0.0000000000000000e+00  -1.9191283850838141e-04 -1.1529486407256182e-03 0.0000000000000000e+00  -1.9191283847937949e-04 -1.1529486407072301e-03 0.0000000000000000e+00  -1.9191283849467623e-04 -1.1529486406961344e-03 0.0000000000000000e+00  -1.9191283849617939e-04 -1.1529486407348122e-03 0.0000000000000000e+00  -1.9191283850033514e-04 -1.1529486407117404e-03 0.0000000000000000e+00  -1.9191283849998147e-04 -1.1529486407346387e-03 0.0000000000000000e+00  -1.9191283849370362e-04 -1.1529486407205007e-03 0.0000000000000000e+00  -1.9191283849228890e-04 -1.1529486407191130e-03 0.0000000000000000e+00  -1.9191283848105949e-04 -1.1529486407194664e-03 0.0000000000000000e+00  -1.9191283849494150e-04 -1.1529486407294346e-03 0.0000000000000000e+00  -1.9191283848884048e-04 -1.1529486407100924e-03 0.0000000000000000e+00  -1.9191283849441098e-04 -1.1529486407071434e-03 0.0000000000000000e+00  -1.9191283848742576e-04 2.8488746894813304e-04 0.0000000000000000e+00  4.1860438024015381e-04 9.4872157657011763e-04 0.0000000000000000e+00  4.1860438022479023e-04 9.4872157657757694e-04 0.0000000000000000e+00  4.1860438021517487e-04 9.4872157654149491e-04 0.0000000000000000e+00  4.1860438020942660e-04 9.4872157655936213e-04 0.0000000000000000e+00  4.1860438020284218e-04 9.4872157657861756e-04 0.0000000000000000e+00  4.1860438018528375e-04 9.4872157653594423e-04 0.0000000000000000e+00  4.1860438019301779e-04 9.4872157650992186e-04 0.0000000000000000e+00  4.1860438020597764e-04 9.4872157654791382e-04 0.0000000000000000e+00  4.1860438020796341e-04 9.4872157651512755e-04 0.0000000000000000e+00  4.1860438022102767e-04 9.4872157654687147e-04 0.0000000000000000e+00  4.1860438022991140e-04 9.4872157655676091e-04 0.0000000000000000e+00  4.1860438023451005e-04 9.4872157656005689e-04 0.0000000000000000e+00  4.1860438024464788e-04 9.4872157655936148e-04 0.0000000000000000e+00  4.1860438022311796e-04 9.4872157654739189e-04 0.0000000000000000e+00  4.1860438021747414e-04 9.4872157652380225e-04 0.0000000000000000e+00  4.1860438022489469e-04 9.4872157655988189e-04 0.0000000000000000e+00  4.1860438020869492e-04 9.4872157654201424e-04 0.0000000000000000e+00  4.1860438020346923e-04 9.4872157653525142e-04 0.0000000000000000e+00  4.1860438022050508e-04 9.4872157655190217e-04 0.0000000000000000e+00  4.1860438020597759e-04 9.4872157653750396e-04 0.0000000000000000e+00  4.1860438021235297e-04 9.4872157657272145e-04 0.0000000000000000e+00  4.1860438021266652e-04 9.4872157656092273e-04 0.0000000000000000e+00  4.1860438020817239e-04 9.4872157655433078e-04 0.0000000000000000e+00  4.1860438021172587e-04 9.4872157658954827e-04 0.0000000000000000e+00  