<?xml version="1.0"?>
<VTKFile type="UnstructuredGrid"  version="0.1"  >
<UnstructuredGrid>
<Piece  NumberOfPoints="2601" NumberOfCells="5000">
<Points>
<DataArray  type="Float64"  NumberOfComponents="3"  format="ascii">0 0 0  0.02 0 0  0.04 0 0  0.06 0 0  0.08 0 0  0.1 0 0  0.12 0 0  0.14 0 0  0.16 0 0  0.18 0 0  0.2 0 0  0.22 0 0  0.24 0 0  0.26 0 0  0.28 0 0  0.3 0 0  0.32 0 0  0.34 0 0  0.36 0 0  0.38 0 0  0.4 0 0  0.42 0 0  0.44 0 0  0.46 0 0  0.48 0 0  0.5 0 0  0.52 0 0  0.54 0 0  0.5600000000000001 0 0  0.58 0 0  0.6 0 0  0.62 0 0  0.64 0 0  0.66 0 0  0.68 0 0  0.7 0 0  0.72 0 0  0.74 0 0  0.76 0 0  0.78 0 0  0.8 0 0  0.82 0 0  0.84 0 0  0.86 0 0  0.88 0 0  0.9 0 0  0.92 0 0  0.9399999999999999 0 0  0.96 0 0  0.98 0 0  1 0 0  0 0.01313563088723984 0  0.02 0.01313563088723984 0  0.04 0.01313563088723984 0  0.06 0.01313563088723984 0  0.08 0.01313563088723984 0  0.1 0.01313563088723984 0  0.12 0.01313563088723984 0  0.14 0.01313563088723984 0  0.16 0.01313563088723984 0  0.18 0.01313563088723984 0  0.2 0.01313563088723984 0  0.22 0.01313563088723984 0  0.24 0.01313563088723984 0  0.26 0.01313563088723984 0  0.28 0.01313563088723984 0  0.3 0.01313563088723984 0  0.32 0.01313563088723984 0  0.34 0.01313563088723984 0  0.36 0.01313563088723984 0  0.38 0.01313563088723984 0  0.4 0.01313563088723984 0  0.42 0.01313563088723984 0  0.44 0.01313563088723984 0  0.46 0.01313563088723984 0  0.48 0.01313563088723984 0  0.5 0.01313563088723984 0  0.52 0.01313563088723984 0  0.54 0.01313563088723984 0  0.5600000000000001 0.01313563088723984 0  0.58 0.01313563088723984 0  0.6 0.01313563088723984 0  0.62 0.01313563088723984 0  0.64 0.01313563088723984 0  0.66 0.01313563088723984 0  0.68 0.01313563088723984 0  0.7 0.01313563088723984 0  0.72 0.01313563088723984 0  0.74 0.01313563088723984 0  0.76 0.01313563088723984 0  0.78 0.01313563088723984 0  0.8 0.01313563088723984 0  0.82 0.01313563088723984 0  0.84 0.01313563088723984 0  0.86 0.01313563088723984 0  0.88 0.01313563088723984 0  0.9 0.01313563088723984 0  0.92 0.01313563088723984 0  0.9399999999999999 0.01313563088723984 0  0.96 0.01313563088723984 0  0.98 0.01313563088723984 0  1 0.01313563088723984 0  0 0.02664639863733726 0  0.02 0.02664639863733726 0  0.04 0.02664639863733726 0  0.06 0.02664639863733726 0  0.08 0.02664639863733726 0  0.1 0.02664639863733726 0  0.12 0.02664639863733726 0  0.14 0.02664639863733726 0  0.16 0.02664639863733726 0  0.18 0.02664639863733726 0  0.2 0.02664639863733726 0  0.22 0.02664639863733726 0  0.24 0.02664639863733726 0  0.26 0.02664639863733726 0  0.28 0.02664639863733726 0  0.3 0.02664639863733726 0  0.32 0.02664639863733726 0  0.34 0.02664639863733726 0  0.36 0.02664639863733726 0  0.38 0.02664639863733726 0  0.4 0.02664639863733726 0  0.42 0.02664639863733726 0  0.44 0.02664639863733726 0  0.46 0.02664639863733726 0  0.48 0.02664639863733726 0  0.5 0.02664639863733726 0  0.52 0.02664639863733726 0  0.54 0.02664639863733726 0  0.5600000000000001 0.02664639863733726 0  0.58 0.02664639863733726 0  0.6 0.02664639863733726 0  0.62 0.02664639863733726 0  0.64 0.02664639863733726 0  0.66 0.02664639863733726 0  0.68 0.02664639863733726 0  0.7 0.02664639863733726 0  0.72 0.02664639863733726 0  0.74 0.02664639863733726 0  0.76 0.02664639863733726 0  0.78 0.02664639863733726 0  0.8 0.02664639863733726 0  0.82 0.02664639863733726 0  0.84 0.02664639863733726 0  0.86 0.02664639863733726 0  0.88 0.02664639863733726 0  0.9 0.02664639863733726 0  0.92 0.02664639863733726 0  0.9399999999999999 0.02664639863733726 0  0.96 0.02664639863733726 0  0.98 0.02664639863733726 0  1 0.02664639863733726 0  0 0.04101652939099896 0  0.02 0.04101652939099896 0  0.04 0.04101652939099896 0  0.06 0.04101652939099896 0  0.08 0.04101652939099896 0  0.1 0.04101652939099896 0  0.12 0.04101652939099896 0  0.14 0.04101652939099896 0  0.16 0.04101652939099896 0  0.18 0.04101652939099896 0  0.2 0.04101652939099896 0  0.22 0.04101652939099896 0  0.24 0.04101652939099896 0  0.26 0.04101652939099896 0  0.28 0.04101652939099896 0  0.3 0.04101652939099896 0  0.32 0.04101652939099896 0  0.34 0.04101652939099896 0  0.36 0.04101652939099896 0  0.38 0.04101652939099896 0  0.4 0.04101652939099896 0  0.42 0.04101652939099896 0  0.44 0.04101652939099896 0  0.46 0.04101652939099896 0  0.48 0.04101652939099896 0  0.5 0.04101652939099896 0  0.52 0.04101652939099896 0  0.54 0.04101652939099896 0  0.5600000000000001 0.04101652939099896 0  0.58 0.04101652939099896 0  0.6 0.04101652939099896 0  0.62 0.04101652939099896 0  0.64 0.04101652939099896 0  0.66 0.04101652939099896 0  0.68 0.04101652939099896 0  0.7 0.04101652939099896 0  0.72 0.04101652939099896 0  0.74 0.04101652939099896 0  0.76 0.04101652939099896 0  0.78 0.04101652939099896 0  0.8 0.04101652939099896 0  0.82 0.04101652939099896 0  0.84 0.04101652939099896 0  0.86 0.04101652939099896 0  0.88 0.04101652939099896 0  0.9 0.04101652939099896 0  0.92 0.04101652939099896 0  0.9399999999999999 0.04101652939099896 0  0.96 0.04101652939099896 0  0.98 0.04101652939099896 0  1 0.04101652939099896 0  0 0.05705811164099547 0  0.02 0.05705811164099547 0  0.04 0.05705811164099547 0  0.06 0.05705811164099547 0  0.08 0.05705811164099547 0  0.1 0.05705811164099547 0  0.12 0.05705811164099547 0  0.14 0.05705811164099547 0  0.16 0.05705811164099547 0  0.18 0.05705811164099547 0  0.2 0.05705811164099547 0  0.22 0.05705811164099547 0  0.24 0.05705811164099547 0  0.26 0.05705811164099547 0  0.28 0.05705811164099547 0  0.3 0.05705811164099547 0  0.32 0.05705811164099547 0  0.34 0.05705811164099547 0  0.36 0.05705811164099547 0  0.38 0.05705811164099547 0  0.4 0.05705811164099547 0  0.42 0.05705811164099547 0  0.44 0.05705811164099547 0  0.46 0.05705811164099547 0  0.48 0.05705811164099547 0  0.5 0.05705811164099547 0  0.52 0.05705811164099547 0  0.54 0.05705811164099547 0  0.5600000000000001 0.05705811164099547 0  0.58 0.05705811164099547 0  0.6 0.05705811164099547 0  0.62 0.05705811164099547 0  0.64 0.05705811164099547 0  0.66 0.05705811164099547 0  0.68 0.05705811164099547 0  0.7 0.05705811164099547 0  0.72 0.05705811164099547 0  0.74 0.05705811164099547 0  0.76 0.05705811164099547 0  0.78 0.05705811164099547 0  0.8 0.05705811164099547 0  0.82 0.05705811164099547 0  0.84 0.05705811164099547 0  0.86 0.05705811164099547 0  0.88 0.05705811164099547 0  0.9 0.05705811164099547 0  0.92 0.05705811164099547 0  0.9399999999999999 0.05705811164099547 0  0.96 0.05705811164099547 0  0.98 0.05705811164099547 0  1 0.05705811164099547 0  0 0.07667714377545 0  0.02 0.07667714377545 0  0.04 0.07667714377545 0  0.06 0.07667714377545 0  0.08 0.07667714377545 0  0.1 0.07667714377545 0  0.12 0.07667714377545 0  0.14 0.07667714377545 0  0.16 0.07667714377545 0  0.18 0.07667714377545 0  0.2 0.07667714377545 0  0.22 0.07667714377545 0  0.24 0.07667714377545 0  0.26 0.07667714377545 0  0.28 0.07667714377545 0  0.3 0.07667714377545 0  0.32 0.07667714377545 0  0.34 0.07667714377545 0  0.36 0.07667714377545 0  0.38 0.07667714377545 0  0.4 0.07667714377545 0  0.42 0.07667714377545 0  0.44 0.07667714377545 0  0.46 0.07667714377545 0  0.48 0.07667714377545 0  0.5 0.07667714377545 0  0.52 0.07667714377545 0  0.54 0.07667714377545 0  0.5600000000000001 0.07667714377545 0  0.58 0.07667714377545 0  0.6 0.07667714377545 0  0.62 0.07667714377545 0  0.64 0.07667714377545 0  0.66 0.07667714377545 0  0.68 0.07667714377545 0  0.7 0.07667714377545 0  0.72 0.07667714377545 0  0.74 0.07667714377545 0  0.76 0.07667714377545 0  0.78 0.07667714377545 0  0.8 0.07667714377545 0  0.82 0.07667714377545 0  0.84 0.07667714377545 0  0.86 0.07667714377545 0  0.88 0.07667714377545 0  0.9 0.07667714377545 0  0.92 0.07667714377545 0  0.9399999999999999 0.07667714377545 0  0.96 0.07667714377545 0  0.98 0.07667714377545 0  1 0.07667714377545 0  0 0.1098730133816912 0  0.02 0.1098730133816912 0  0.04 0.1098730133816912 0  0.06 0.1098730133816912 0  0.08 0.1098730133816912 0  0.1 0.1098730133816912 0  0.12 0.1098730133816912 0  0.14 0.1098730133816912 0  0.16 0.1098730133816912 0  0.18 0.1098730133816912 0  0.2 0.1098730133816912 0  0.22 0.1098730133816912 0  0.24 0.1098730133816912 0  0.26 0.1098730133816912 0  0.28 0.1098730133816912 0  0.3 0.1098730133816912 0  0.32 0.1098730133816912 0  0.34 0.1098730133816912 0  0.36 0.1098730133816912 0  0.38 0.1098730133816912 0  0.4 0.1098730133816912 0  0.42 0.1098730133816912 0  0.44 0.1098730133816912 0  0.46 0.1098730133816912 0  0.48 0.1098730133816912 0  0.5 0.1098730133816912 0  0.52 0.1098730133816912 0  0.54 0.1098730133816912 0  0.5600000000000001 0.1098730133816912 0  0.58 0.1098730133816912 0  0.6 0.1098730133816912 0  0.62 0.1098730133816912 0  0.64 0.1098730133816912 0  0.66 0.1098730133816912 0  0.68 0.1098730133816912 0  0.7 0.1098730133816912 0  0.72 0.1098730133816912 0  0.74 0.1098730133816912 0  0.76 0.1098730133816912 0  0.78 0.1098730133816912 0  0.8 0.1098730133816912 0  0.82 0.1098730133816912 0  0.84 0.1098730133816912 0  0.86 0.1098730133816912 0  0.88 0.1098730133816912 0  0.9 0.1098730133816912 0  0.92 0.1098730133816912 0  0.9399999999999999 0.1098730133816912 0  0.96 0.1098730133816912 0  0.98 0.1098730133816912 0  1 0.1098730133816912 0  0 0.1603283563168221 0  0.02 0.1603283563168221 0  0.04 0.1603283563168221 0  0.06 0.1603283563168221 0  0.08 0.1603283563168221 0  0.1 0.1603283563168221 0  0.12 0.1603283563168221 0  0.14 0.1603283563168221 0  0.16 0.1603283563168221 0  0.18 0.1603283563168221 0  0.2 0.1603283563168221 0  0.22 0.1603283563168221 0  0.24 0.1603283563168221 0  0.26 0.1603283563168221 0  0.28 0.1603283563168221 0  0.3 0.1603283563168221 0  0.32 0.1603283563168221 0  0.34 0.1603283563168221 0  0.36 0.1603283563168221 0  0.38 0.1603283563168221 0  0.4 0.1603283563168221 0  0.42 0.1603283563168221 0  0.44 0.1603283563168221 0  0.46 0.1603283563168221 0  0.48 0.1603283563168221 0  0.5 0.1603283563168221 0  0.52 0.1603283563168221 0  0.54 0.1603283563168221 0  0.5600000000000001 0.1603283563168221 0  0.58 0.1603283563168221 0 
[...]
<PointData  Vectors="u_paraw"> 
<DataArray  type="Float64"  Name="u_paraw"  NumberOfComponents="3" format="ascii">-8.8407433505538188e-06 -4.1589471892799004e-05 0.0000000000000000e+00  -8.8407433453208441e-06 -4.1589471892354481e-05 0.0000000000000000e+00  -8.8407433599962812e-06 -4.1589471896626238e-05 0.0000000000000000e+00  -8.8407433630832419e-06 -4.1589471899195790e-05 0.0000000000000000e+00  -8.8407433613664315e-06 -4.1589471905267322e-05 0.0000000000000000e+00  -8.8407433560674239e-06 -4.1589471885339707e-05 0.0000000000000000e+00  -8.8407433663682949e-06 -4.1589471908964418e-05 0.0000000000000000e+00  -8.8407433625054672e-06 -4.1589471910373935e-05 0.0000000000000000e+00  -8.8407433653778254e-06 -4.1589471899477703e-05 0.0000000000000000e+00  -8.8407433646679897e-06 -4.1589471908346423e-05 0.0000000000000000e+00  -8.8407433590883516e-06 -4.1589471904128931e-05 0.0000000000000000e+00  -8.8407433602273907e-06 -4.1589471907468273e-05 0.0000000000000000e+00  -8.8407433649321150e-06 -4.1589471898219974e-05 0.0000000000000000e+00  -8.8407433556382204e-06 -4.1589471893156750e-05 0.0000000000000000e+00  -8.8407433566451969e-06 -4.1589471912000313e-05 0.0000000000000000e+00  -8.8407433524852301e-06 -4.1589471896864722e-05 0.0000000000000000e+00  -8.8407433571569386e-06 -4.1589471892094232e-05 0.0000000000000000e+00  -8.8407433551264787e-06 -4.1589471894284449e-05 0.0000000000000000e+00  -8.8407433481932006e-06 -4.1589471882835146e-05 0.0000000000000000e+00  -8.8407433574540795e-06 -4.1589471904096350e-05 0.0000000000000000e+00  -8.8407433523366605e-06 -4.1589471904150689e-05 0.0000000000000000e+00  -8.8407433656254436e-06 -4.1589471901136478e-05 0.0000000000000000e+00  -8.8407433602108837e-06 -4.1589471889264465e-05 0.0000000000000000e+00  -8.8407433483087562e-06 -4.1589471896257697e-05 0.0000000000000000e+00  -8.8407433563645647e-06 -4.1589471895878098e-05 0.0000000000000000e+00  -8.8407433675073323e-06 -4.1589471898425973e-05 0.0000000000000000e+00  -8.8407433535417292e-06 -4.1589471886033542e-05 0.0000000000000000e+00  -8.8407433572064630e-06 -4.1589471888093526e-05 0.0000000000000000e+00  -8.8407433623899133e-06 -4.1589471900236821e-05 0.0000000000000000e+00  -8.8407433568267821e-06 -4.1589471884190398e-05 0.0000000000000000e+00  -8.8407433526007840e-06 -4.1589471902047208e-05 0.0000000000000000e+00  -8.8407433591048603e-06 -4.1589471904410769e-05 0.0000000000000000e+00  -8.8407433622413437e-06 -4.1589471893145908e-05 0.0000000000000000e+00  -8.8407433679200288e-06 -4.1589471909918516e-05 0.0000000000000000e+00  -8.8407433619442028e-06 -4.1589471903706268e-05 0.0000000000000000e+00  -8.8407433590058134e-06 -4.1589471894609581e-05 0.0000000000000000e+00  -8.8407433561499622e-06 -4.1589471899553543e-05 0.0000000000000000e+00  -8.8407433693231913e-06 -4.1589471886152804e-05 0.0000000000000000e+00  -8.8407433583289934e-06 -4.1589471894783054e-05 0.0000000000000000e+00  -8.8407433586261342e-06 -4.1589471890955820e-05 0.0000000000000000e+00  -8.8407433640076784e-06 -4.1589471900236821e-05 0.0000000000000000e+00  -8.8407433566617056e-06 -4.1589471890999188e-05 0.0000000000000000e+00  -8.8407433563315491e-06 -4.1589471917887402e-05 0.0000000000000000e+00  -8.8407433619937255e-06 -4.1589471894956526e-05 0.0000000000000000e+00  -8.8407433566947212e-06 -4.1589471897189982e-05 0.0000000000000000e+00  -8.8407433589232734e-06 -4.1589471896810512e-05 0.0000000000000000e+00  -8.8407433611023046e-06 -4.1589471898306941e-05 0.0000000000000000e+00  -8.8407433597816803e-06 -4.1589471903760248e-05 0.0000000000000000e+00  -8.8407433673917784e-06 -4.1589471909929358e-05 0.0000000000000000e+00  -8.8407433606070699e-06 -4.1589471913908380e-05 0.0000000000000000e+00  -8.8407433505538171e-06 -2.1864985301029693e-14 0.0000000000000000e+00  -1.8317578919022923e-05 1.3256621791838186e-04 0.0000000000000000e+00  -1.8317578915909328e-05 1.3256621793030808e-04 0.0000000000000000e+00  -1.8317578938860049e-05 1.3256621790743147e-04 0.0000000000000000e+00  -1.8317578927753831e-05 1.3256621792018163e-04 0.0000000000000000e+00  -1.8317578937319303e-05 1.3256621791074907e-04 0.0000000000000000e+00  -1.8317578934045215e-05 1.3256621791714598e-04 0.0000000000000000e+00  -1.8317578941813151e-05 1.3256621790370165e-04 0.0000000000000000e+00  -1.8317578930995819e-05 1.3256621791577988e-04 0.0000000000000000e+00  -1.8317578933339040e-05 1.3256621791369821e-04 0.0000000000000000e+00  -1.8317578929422973e-05 1.3256621792048510e-04 0.0000000000000000e+00  -1.8317578930835323e-05 1.3256621791638703e-04 0.0000000000000000e+00  -1.8317578938185973e-05 1.3256621791113950e-04 0.0000000000000000e+00  -1.8317578922200720e-05 1.3256621791300411e-04 0.0000000000000000e+00  -1.8317578924800732e-05 1.3256621791690723e-04 0.0000000000000000e+00  -1.8317578937255104e-05 1.3256621792388988e-04 0.0000000000000000e+00  -1.8317578928524204e-05 1.3256621791903227e-04 0.0000000000000000e+00  -1.8317578923966157e-05 1.3256621790231387e-04 0.0000000000000000e+00  -1.8317578920178486e-05 1.3256621791690761e-04 0.0000000000000000e+00  -1.8317578923259982e-05 1.3256621792139583e-04 0.0000000000000000e+00  -1.8317578935810656e-05 1.3256621791625671e-04 0.0000000000000000e+00  -1.8317578923067390e-05 1.3256621791632214e-04 0.0000000000000000e+00  -1.8317578928042720e-05 1.3256621790183682e-04 0.0000000000000000e+00  -1.8317578927689632e-05 1.3256621792182951e-04 0.0000000000000000e+00  -1.8317578931445204e-05 1.3256621791248407e-04 0.0000000000000000e+00  -1.8317578930803224e-05 1.3256621791586640e-04 0.0000000000000000e+00  -1.8317578926213081e-05 1.3256621792594948e-04 0.0000000000000000e+00  -1.8317578934526699e-05 1.3256621790959971e-04 0.0000000000000000e+00  -1.8317578933082247e-05 1.3256621791424010e-04 0.0000000000000000e+00  -1.8317578926309379e-05 1.3256621792081112e-04 0.0000000000000000e+00  -1.8317578925859994e-05 1.3256621790985992e-04 0.0000000000000000e+00  -1.8317578925795795e-05 1.3256621792133078e-04 0.0000000000000000e+00  -1.8317578931381005e-05 1.3256621790890582e-04 0.0000000000000000e+00  -1.8317578926180982e-05 1.3256621791395820e-04 0.0000000000000000e+00  -1.8317578938250171e-05 1.3256621791161633e-04 0.0000000000000000e+00  -1.8317578932055084e-05 1.3256621790322536e-04 0.0000000000000000e+00  -1.8317578928973589e-05 1.3256621792440991e-04 0.0000000000000000e+00  -1.8317578933820521e-05 1.3256621790194524e-04 0.0000000000000000e+00  -1.8317578931284708e-05 1.3256621790985992e-04 0.0000000000000000e+00  -1.8317578928427906e-05 1.3256621791354621e-04 0.0000000000000000e+00  -1.8317578933242743e-05 1.3256621791257043e-04 0.0000000000000000e+00  -1.8317578931477303e-05 1.3256621791194235e-04 0.0000000000000000e+00  -1.8317578926213081e-05 1.3256621792382444e-04 0.0000000000000000e+00  -1.8317578938924250e-05 1.3256621790120799e-04 0.0000000000000000e+00  -1.8317578918958728e-05 1.3256621791426178e-04 0.0000000000000000e+00  -1.8317578931284708e-05 1.3256621790630374e-04 0.0000000000000000e+00  -1.8317578930418037e-05 1.3256621792042005e-04 0.0000000000000000e+00  -1.8317578936677326e-05 1.3256621791400233e-04 0.0000000000000000e+00  -1.8317578928909390e-05 1.3256621791393652e-04 0.0000000000000000e+00  -1.8317578933178545e-05 1.3256621792675179e-04 0.0000000000000000e+00  -1.8317578932087180e-05 1.3256621791606156e-04 0.0000000000000000e+00  -1.8317578919022927e-05 -5.3155235514952337e-05 0.0000000000000000e+00  5.0694927448384347e-05 5.6135268802380220e-04 0.0000000000000000e+00  5.0694927450315826e-05 5.6135268803009057e-04 0.0000000000000000e+00  5.0694927432268589e-05 5.6135268801677668e-04 0.0000000000000000e+00  5.0694927448867216e-05 5.6135268802939657e-04 0.0000000000000000e+00  5.0694927433717199e-05 5.6135268802844248e-04 0.0000000000000000e+00  5.0694927436855849e-05 5.6135268802085349e-04 0.0000000000000000e+00  5.0694927451643716e-05 5.6135268804574602e-04 0.0000000000000000e+00  5.0694927448082552e-05 5.6135268804275438e-04 0.0000000000000000e+00  5.0694927426957029e-05 5.6135268800758286e-04 0.0000000000000000e+00  5.0694927451402284e-05 5.6135268803486063e-04 0.0000000000000000e+00  5.0694927431966795e-05 5.6135268803538180e-04 0.0000000000000000e+00  5.0694927436252260e-05 5.6135268801933561e-04 0.0000000000000000e+00  5.0694927451764435e-05 5.6135268802137315e-04 0.0000000000000000e+00  5.0694927451341921e-05 5.6135268803390653e-04 0.0000000000000000e+00  5.0694927446090717e-05 5.6135268801378525e-04 0.0000000000000000e+00  5.0694927450436545e-05 5.6135268802675079e-04 0.0000000000000000e+00  5.0694927449651880e-05 5.6135268804127910e-04 0.0000000000000000e+00  5.0694927448987935e-05 5.6135268802627526e-04 0.0000000000000000e+00  5.0694927447539326e-05 5.6135268802792173e-04 0.0000000000000000e+00  5.0694927446513230e-05 5.6135268803386316e-04 0.0000000000000000e+00  5.0694927439632341e-05 5.6135268801656081e-04 0.0000000000000000e+00  5.0694927445124984e-05 5.6135268803026361e-04 0.0000000000000000e+00  5.0694927450617620e-05 5.6135268802822531e-04 0.0000000000000000e+00  5.0694927444762827e-05 5.6135268801265768e-04 0.0000000000000000e+00  5.0694927445064621e-05 5.6135268803594483e-04 0.0000000000000000e+00  5.0694927445306059e-05 5.6135268803737598e-04 0.0000000000000000e+00  5.0694927434803650e-05 5.6135268803113097e-04 0.0000000000000000e+00  5.0694927450979771e-05 5.6135268803780966e-04 0.0000000000000000e+00  5.0694927433415404e-05 5.6135268801742980e-04 0.0000000000000000e+00  5.0694927435226164e-05 5.6135268802367166e-04 0.0000000000000000e+00  5.0694927455023797e-05 5.6135268803100087e-04 0.0000000000000000e+00  5.0694927423939091e-05 5.6135268801161533e-04 0.0000000000000000e+00  5.0694927451824791e-05 5.6135268802774826e-04 0.0000000000000000e+00  5.0694927436855849e-05 5.6135268802488597e-04 0.0000000000000000e+00  5.0694927431665000e-05 5.6135268802501922e-04 0.0000000000000000e+00  5.0694927430819980e-05 5.6135268802644722e-04 0.0000000000000000e+00  5.0694927444581751e-05 5.6135268803377643e-04 0.0000000000000000e+00  5.0694927445909641e-05 5.6135268801560520e-04 0.0000000000000000e+00  5.0694927446996100e-05 5.6135268803017687e-04 0.0000000000000000e+00  5.0694927448263634e-05 5.6135268802280430e-04 0.0000000000000000e+00  5.0694927438485526e-05 5.6135268803525408e-04 0.0000000000000000e+00  5.0694927444038525e-05 5.6135268802909267e-04 0.0000000000000000e+00  5.0694927445124984e-05 5.6135268805307522e-04 0.0000000000000000e+00  5.0694927443857450e-05 5.6135268802050579e-04 0.0000000000000000e+00  5.0694927447539326e-05 5.6135268804171278e-04 0.0000000000000000e+00  5.0694927432570384e-05 5.6135268801829402e-04 0.0000000000000000e+00  5.0694927447539326e-05 5.6135268804340728e-04 0.0000000000000000e+00  5.0694927431423569e-05 5.6135268802319461e-04 0.0000000000000000e+00  5.0694927436674767e-05 5.6135268801521488e-04 0.0000000000000000e+00  5.0694927452126585e-05 5.6135268805463647e-04 0.0000000000000000e+00  5.0694927448384347e-05 3.8364075105319867e-04 0.0000000000000000e+00  -4.8338057645220625e-05 -2.0229991333957711e-04 0.0000000000000000e+00  -4.8338057646950856e-05 -2.0229991335536310e-04 0.0000000000000000e+00  -4.8338057656034546e-05 -2.0229991335475597e-04 0.0000000000000000e+00  -4.8338057651600836e-05 -2.0229991336091419e-04 0.0000000000000000e+00  -4.8338057641327614e-05 -2.0229991335822536e-04 0.0000000000000000e+00  -4.8338057625863706e-05 -2.0229991334304667e-04 0.0000000000000000e+00  -4.8338057642949703e-05 -2.0229991333359216e-04 0.0000000000000000e+00  -4.8338057648032239e-05 -2.0229991335388869e-04 0.0000000000000000e+00  -4.8338057642409004e-05 -2.0229991332188304e-04 0.0000000000000000e+00  -4.8338057646626436e-05 -2.0229991337002135e-04 0.0000000000000000e+00  -4.8338057640462495e-05 -2.0229991334616917e-04 0.0000000000000000e+00  -4.8338057643274116e-05 -2.0229991335935307e-04 0.0000000000000000e+00  -4.8338057657872912e-05 -2.0229991336351614e-04 0.0000000000000000e+00  -4.8338057643706679e-05 -2.0229991336238857e-04 0.0000000000000000e+00  -4.8338057649329907e-05 -2.0229991335371549e-04 0.0000000000000000e+00  -4.8338057634514847e-05 -2.0229991335007203e-04 0.0000000000000000e+00  -4.8338057648897358e-05 -2.0229991337036829e-04 0.0000000000000000e+00  -4.8338057638299715e-05 -2.0229991334252652e-04 0.0000000000000000e+00  -4.8338057647924104e-05 -2.0229991336299572e-04 0.0000000000000000e+00  -4.8338057651925257e-05 -2.0229991335232717e-04 0.0000000000000000e+00  -4.8338057653547338e-05 -2.0229991335978702e-04 0.0000000000000000e+00  -4.8338057649870612e-05 -2.0229991336750600e-04 0.0000000000000000e+00  -4.8338057642084591e-05 -2.0229991334998529e-04 0.0000000000000000e+00  -4.8338057652790362e-05 -2.0229991335475632e-04 0.0000000000000000e+00  -4.8338057636893912e-05 -2.0229991335250064e-04 0.0000000000000000e+00  -4.8338057637326468e-05 -2.0229991335570988e-04 0.0000000000000000e+00  -4.8338057647707826e-05 -2.0229991332621958e-04 0.0000000000000000e+00  -4.8338057655710125e-05 -2.0229991335371495e-04 0.0000000000000000e+00  -4.8338057651060145e-05 -2.0229991335232828e-04 0.0000000000000000e+00  -4.8338057644247371e-05 -2.0229991335969974e-04 0.0000000000000000e+00  -4.8338057641868313e-05 -2.0229991336186815e-04 0.0000000000000000e+00  -4.8338057656034546e-05 -2.0229991335076592e-04 0.0000000000000000e+00  -4.8338057644355513e-05 -2.0229991335475578e-04 0.0000000000000000e+00  -4.8338057661008947e-05 -2.0229991337132239e-04 0.0000000000000000e+00  -4.8338057635704379e-05 -2.0229991335007314e-04 0.0000000000000000e+00  -4.8338057647599690e-05 -2.0229991334981182e-04 0.0000000000000000e+00  -4.8338057658629882e-05 -2.0229991336108752e-04 0.0000000000000000e+00  -4.8338057647491548e-05 -2.0229991335354148e-04 0.0000000000000000e+00  -4.8338057640895058e-05 -2.0229991334703626e-04 0.0000000000000000e+00  -4.8338057649762470e-05 -2.0229991335466905e-04 0.0000000000000000e+00  -4.8338057641219479e-05 -2.0229991335007314e-04 0.0000000000000000e+00  -4.8338057646842714e-05 -2.0229991336793968e-04 0.0000000000000000e+00  -4.8338057637650881e-05 -2.0229991334452091e-04 0.0000000000000000e+00  -4.8338057658197326e-05 -2.0229991338042969e-04 0.0000000000000000e+00  -4.8338057630297422e-05 -2.0229991334773015e-04 0.0000000000000000e+00  -4.8338057640678780e-05 -2.0229991334495459e-04 0.0000000000000000e+00  -4.8338057632243925e-05 -2.0229991334322098e-04 0.0000000000000000e+00  -4.8338057650735724e-05 -2.0229991334694953e-04 0.0000000000000000e+00  -4.8338057650735724e-05 -2.0229991336620496e-04 0.0000000000000000e+00  -4.8338057627702080e-05 -2.0229991333923001e-04 0.0000000000000000e+00  -4.8338057645220625e-05 5.1632332135303626e-04 0.0000000000000000e+00  1.3806011123698107e-04 1.3777472402456967e-04 0.0000000000000000e+00  1.3806011124670734e-04 1.3777472404920274e-04 0.0000000000000000e+00  1.3806011122858116e-04 1.3777472403272292e-04 0.0000000000000000e+00  1.3806011123928001e-04 1.3777472402604418e-04 0.0000000000000000e+00  1.3806011124529259e-04 1.3777472405154462e-04 0.0000000000000000e+00  1.3806011123406321e-04 1.3777472404529969e-04 0.0000000000000000e+00  1.3806011123680424e-04 1.3777472405865690e-04 0.0000000000000000e+00  1.3806011121814753e-04 1.3777472403393726e-04 0.0000000000000000e+00  1.3806011122168433e-04 1.3777472403558524e-04 0.0000000000000000e+00  1.3806011121673281e-04 1.3777472402621757e-04 0.0000000000000000e+00  1.3806011122610536e-04 1.3777472404347823e-04 0.0000000000000000e+00  1.3806011121867806e-04 1.3777472404460581e-04 0.0000000000000000e+00  1.3806011122274539e-04 1.3777472404928940e-04 0.0000000000000000e+00  1.3806011122354116e-04 1.3777472402491653e-04 0.0000000000000000e+00  1.3806011123105691e-04 1.3777472403098842e-04 0.0000000000000000e+00  1.3806011123945684e-04 1.3777472403714633e-04 0.0000000000000000e+00  1.3806011124511576e-04 1.3777472404512606e-04 0.0000000000000000e+00  1.3806011124025262e-04 1.3777472404451926e-04 0.0000000000000000e+00  1.3806011123096849e-04 1.3777472403454425e-04 0.0000000000000000e+00  1.3806011124423156e-04 1.3777472404373828e-04 0.0000000000000000e+00  1.3806011122928849e-04 1.3777472405223878e-04 0.0000000000000000e+00  1.3806011122194961e-04 1.3777472403090133e-04 0.0000000000000000e+00  1.3806011123874948e-04 1.3777472403862085e-04 0.0000000000000000e+00  1.3806011123874948e-04 1.3777472402908022e-04 0.0000000000000000e+00  1.3806011123653899e-04 1.3777472406637642e-04 0.0000000000000000e+00  1.3806011121240020e-04 1.3777472400661520e-04 0.0000000000000000e+00  1.3806011123645054e-04 1.3777472402760535e-04 0.0000000000000000e+00  1.3806011125148203e-04 1.3777472404304439e-04 0.0000000000000000e+00  1.3806011125095150e-04 1.3777472405718312e-04 0.0000000000000000e+00  1.3806011124334734e-04 1.3777472403038091e-04 0.0000000000000000e+00  1.3806011123282532e-04 1.3777472403289626e-04 0.0000000000000000e+00  1.3806011123689265e-04 1.3777472403176869e-04 0.0000000000000000e+00  1.3806011123317899e-04 1.3777472403810043e-04 0.0000000000000000e+00  1.3806011124440840e-04 1.3777472406143246e-04 0.0000000000000000e+00  1.3806011125042097e-04 1.3777472405969847e-04 0.0000000000000000e+00  1.3806011123998737e-04 1.3777472404087599e-04 0.0000000000000000e+00  1.3806011123671582e-04 1.3777472404287092e-04 0.0000000000000000e+00  1.3806011123300216e-04 1.3777472403116154e-04 0.0000000000000000e+00  1.3806011123989895e-04 1.3777472403862085e-04 0.0000000000000000e+00  1.3806011123158743e-04 1.3777472404174335e-04 0.0000000000000000e+00  1.3806011123317899e-04 1.3777472403159595e-04 0.0000000000000000e+00  1.3806011124414315e-04 1.3777472404287092e-04 0.0000000000000000e+00  1.3806011123300216e-04 1.3777472403948821e-04 0.0000000000000000e+00  1.3806011123821896e-04 1.3777472405458030e-04 0.0000000000000000e+00  1.3806011125607989e-04 1.3777472405102412e-04 0.0000000000000000e+00  1.3806011124953678e-04 1.3777472404052904e-04 0.0000000000000000e+00  1.3806011123821896e-04 1.3777472404929013e-04 0.0000000000000000e+00  1.3806011122416011e-04 1.3777472404035557e-04 0.0000000000000000e+00  1.3806011124564628e-04 1.3777472404078925e-04 0.0000000000000000e+00  1.3806011125546094e-04 1.3777472407106018e-04 0.0000000000000000e+00  1.3806011123698107e-04 -6.8882287539446000e-04 0.0000000000000000e+00  -3.3074897592623177e-04 -1.7299024939543620e-03 0.0000000000000000e+00  -3.3074897592518660e-04 -1.7299024939326779e-03 0.0000000000000000e+00  -3.3074897593856446e-04 -1.7299024939536685e-03 0.0000000000000000e+00  -3.3074897594859783e-04 -1.7299024939463818e-03 0.0000000000000000e+00  -3.3074897596082600e-04 -1.7299024939531472e-03 0.0000000000000000e+00  -3.3074897596563368e-04 -1.7299024939805572e-03 0.0000000000000000e+00  -3.3074897594462623e-04 -1.7299024939527990e-03 0.0000000000000000e+00  -3.3074897594650754e-04 -1.7299024939748326e-03 0.0000000000000000e+00  -3.3074897592340986e-04 -1.7299024939207092e-03 0.0000000000000000e+00  -3.3074897593595153e-04 -1.7299024939852383e-03 0.0000000000000000e+00  -3.3074897592738140e-04 -1.7299024939640773e-03 0.0000000000000000e+00  -3.3074897593187553e-04 -1.7299024939802102e-03 0.0000000000000000e+00  -3.3074897592309625e-04 -1.7299024939694523e-03 0.0000000000000000e+00  -3.3074897593563798e-04 -1.7299024939550541e-03 0.0000000000000000e+00  -3.3074897593292064e-04 -1.7299024939536711e-03 0.0000000000000000e+00  -3.3074897593877344e-04 -1.7299024939789933e-03 0.0000000000000000e+00  -3.3074897592957615e-04 -1.7299024939259108e-03 0.0000000000000000e+00  -3.3074897594055017e-04 -1.7299024939510690e-03 0.0000000000000000e+00  -3.3074897593323414e-04 -1.7299024939465540e-03 0.0000000000000000e+00  -3.3074897593584701e-04 -1.7299024939158494e-03 0.0000000000000000e+00  -3.3074897595685441e-04 -1.7299024939689367e-03 0.0000000000000000e+00  -3.3074897595152420e-04 -1.7299024939920037e-03 0.0000000000000000e+00  -3.3074897593553346e-04 -1.7299024939363191e-03 0.0000000000000000e+00  -3.3074897594734362e-04 -1.7299024939484669e-03 0.0000000000000000e+00  -3.3074897595110613e-04 -1.7299024939699727e-03 0.00