<?xml version="1.0"?>
<VTKFile type="UnstructuredGrid"  version="0.1"  >
<UnstructuredGrid>
<Piece  NumberOfPoints="2601" NumberOfCells="5000">
<Points>
<DataArray  type="Float64"  NumberOfComponents="3"  format="ascii">0 0 0  0.02 0 0  0.04 0 0  0.06 0 0  0.08 0 0  0.1 0 0  0.12 0 0  0.14 0 0  0.16 0 0  0.18 0 0  0.2 0 0  0.22 0 0  0.24 0 0  0.26 0 0  0.28 0 0  0.3 0 0  0.32 0 0  0.34 0 0  0.36 0 0  0.38 0 0  0.4 0 0  0.42 0 0  0.44 0 0  0.46 0 0  0.48 0 0  0.5 0 0  0.52 0 0  0.54 0 0  0.5600000000000001 0 0  0.58 0 0  0.6 0 0  0.62 0 0  0.64 0 0  0.66 0 0  0.68 0 0  0.7 0 0  0.72 0 0  0.74 0 0  0.76 0 0  0.78 0 0  0.8 0 0  0.82 0 0  0.84 0 0  0.86 0 0  0.88 0 0  0.9 0 0  0.92 0 0  0.9399999999999999 0 0  0.96 0 0  0.98 0 0  1 0 0  0 0.01313563088723984 0  0.02 0.01313563088723984 0  0.04 0.01313563088723984 0  0.06 0.01313563088723984 0  0.08 0.01313563088723984 0  0.1 0.01313563088723984 0  0.12 0.01313563088723984 0  0.14 0.01313563088723984 0  0.16 0.01313563088723984 0  0.18 0.01313563088723984 0  0.2 0.01313563088723984 0  0.22 0.01313563088723984 0  0.24 0.01313563088723984 0  0.26 0.01313563088723984 0  0.28 0.01313563088723984 0  0.3 0.01313563088723984 0  0.32 0.01313563088723984 0  0.34 0.01313563088723984 0  0.36 0.01313563088723984 0  0.38 0.01313563088723984 0  0.4 0.01313563088723984 0  0.42 0.01313563088723984 0  0.44 0.01313563088723984 0  0.46 0.01313563088723984 0  0.48 0.01313563088723984 0  0.5 0.01313563088723984 0  0.52 0.01313563088723984 0  0.54 0.01313563088723984 0  0.5600000000000001 0.01313563088723984 0  0.58 0.01313563088723984 0  0.6 0.01313563088723984 0  0.62 0.01313563088723984 0  0.64 0.01313563088723984 0  0.66 0.01313563088723984 0  0.68 0.01313563088723984 0  0.7 0.01313563088723984 0  0.72 0.01313563088723984 0  0.74 0.01313563088723984 0  0.76 0.01313563088723984 0  0.78 0.01313563088723984 0  0.8 0.01313563088723984 0  0.82 0.01313563088723984 0  0.84 0.01313563088723984 0  0.86 0.01313563088723984 0  0.88 0.01313563088723984 0  0.9 0.01313563088723984 0  0.92 0.01313563088723984 0  0.9399999999999999 0.01313563088723984 0  0.96 0.01313563088723984 0  0.98 0.01313563088723984 0  1 0.01313563088723984 0  0 0.02664639863733726 0  0.02 0.02664639863733726 0  0.04 0.02664639863733726 0  0.06 0.02664639863733726 0  0.08 0.02664639863733726 0  0.1 0.02664639863733726 0  0.12 0.02664639863733726 0  0.14 0.02664639863733726 0  0.16 0.02664639863733726 0  0.18 0.02664639863733726 0  0.2 0.02664639863733726 0  0.22 0.02664639863733726 0  0.24 0.02664639863733726 0  0.26 0.02664639863733726 0  0.28 0.02664639863733726 0  0.3 0.02664639863733726 0  0.32 0.02664639863733726 0  0.34 0.02664639863733726 0  0.36 0.02664639863733726 0  0.38 0.02664639863733726 0  0.4 0.02664639863733726 0  0.42 0.02664639863733726 0  0.44 0.02664639863733726 0  0.46 0.02664639863733726 0  0.48 0.02664639863733726 0  0.5 0.02664639863733726 0  0.52 0.02664639863733726 0  0.54 0.02664639863733726 0  0.5600000000000001 0.02664639863733726 0  0.58 0.02664639863733726 0  0.6 0.02664639863733726 0  0.62 0.02664639863733726 0  0.64 0.02664639863733726 0  0.66 0.02664639863733726 0  0.68 0.02664639863733726 0  0.7 0.02664639863733726 0  0.72 0.02664639863733726 0  0.74 0.02664639863733726 0  0.76 0.02664639863733726 0  0.78 0.02664639863733726 0  0.8 0.02664639863733726 0  0.82 0.02664639863733726 0  0.84 0.02664639863733726 0  0.86 0.02664639863733726 0  0.88 0.02664639863733726 0  0.9 0.02664639863733726 0  0.92 0.02664639863733726 0  0.9399999999999999 0.02664639863733726 0  0.96 0.02664639863733726 0  0.98 0.02664639863733726 0  1 0.02664639863733726 0  0 0.04101652939099896 0  0.02 0.04101652939099896 0  0.04 0.04101652939099896 0  0.06 0.04101652939099896 0  0.08 0.04101652939099896 0  0.1 0.04101652939099896 0  0.12 0.04101652939099896 0  0.14 0.04101652939099896 0  0.16 0.04101652939099896 0  0.18 0.04101652939099896 0  0.2 0.04101652939099896 0  0.22 0.04101652939099896 0  0.24 0.04101652939099896 0  0.26 0.04101652939099896 0  0.28 0.04101652939099896 0  0.3 0.04101652939099896 0  0.32 0.04101652939099896 0  0.34 0.04101652939099896 0  0.36 0.04101652939099896 0  0.38 0.04101652939099896 0  0.4 0.04101652939099896 0  0.42 0.04101652939099896 0  0.44 0.04101652939099896 0  0.46 0.04101652939099896 0  0.48 0.04101652939099896 0  0.5 0.04101652939099896 0  0.52 0.04101652939099896 0  0.54 0.04101652939099896 0  0.5600000000000001 0.04101652939099896 0  0.58 0.04101652939099896 0  0.6 0.04101652939099896 0  0.62 0.04101652939099896 0  0.64 0.04101652939099896 0  0.66 0.04101652939099896 0  0.68 0.04101652939099896 0  0.7 0.04101652939099896 0  0.72 0.04101652939099896 0  0.74 0.04101652939099896 0  0.76 0.04101652939099896 0  0.78 0.04101652939099896 0  0.8 0.04101652939099896 0  0.82 0.04101652939099896 0  0.84 0.04101652939099896 0  0.86 0.04101652939099896 0  0.88 0.04101652939099896 0  0.9 0.04101652939099896 0  0.92 0.04101652939099896 0  0.9399999999999999 0.04101652939099896 0  0.96 0.04101652939099896 0  0.98 0.04101652939099896 0  1 0.04101652939099896 0  0 0.05705811164099547 0  0.02 0.05705811164099547 0  0.04 0.05705811164099547 0  0.06 0.05705811164099547 0  0.08 0.05705811164099547 0  0.1 0.05705811164099547 0  0.12 0.05705811164099547 0  0.14 0.05705811164099547 0  0.16 0.05705811164099547 0  0.18 0.05705811164099547 0  0.2 0.05705811164099547 0  0.22 0.05705811164099547 0  0.24 0.05705811164099547 0  0.26 0.05705811164099547 0  0.28 0.05705811164099547 0  0.3 0.05705811164099547 0  0.32 0.05705811164099547 0  0.34 0.05705811164099547 0  0.36 0.05705811164099547 0  0.38 0.05705811164099547 0  0.4 0.05705811164099547 0  0.42 0.05705811164099547 0  0.44 0.05705811164099547 0  0.46 0.05705811164099547 0  0.48 0.05705811164099547 0  0.5 0.05705811164099547 0  0.52 0.05705811164099547 0  0.54 0.05705811164099547 0  0.5600000000000001 0.05705811164099547 0  0.58 0.05705811164099547 0  0.6 0.05705811164099547 0  0.62 0.05705811164099547 0  0.64 0.05705811164099547 0  0.66 0.05705811164099547 0  0.68 0.05705811164099547 0  0.7 0.05705811164099547 0  0.72 0.05705811164099547 0  0.74 0.05705811164099547 0  0.76 0.05705811164099547 0  0.78 0.05705811164099547 0  0.8 0.05705811164099547 0  0.82 0.05705811164099547 0  0.84 0.05705811164099547 0  0.86 0.05705811164099547 0  0.88 0.05705811164099547 0  0.9 0.05705811164099547 0  0.92 0.05705811164099547 0  0.9399999999999999 0.05705811164099547 0  0.96 0.05705811164099547 0  0.98 0.05705811164099547 0  1 0.05705811164099547 0  0 0.07667714377545 0  0.02 0.07667714377545 0  0.04 0.07667714377545 0  0.06 0.07667714377545 0  0.08 0.07667714377545 0  0.1 0.07667714377545 0  0.12 0.07667714377545 0  0.14 0.07667714377545 0  0.16 0.07667714377545 0  0.18 0.07667714377545 0  0.2 0.07667714377545 0  0.22 0.07667714377545 0  0.24 0.07667714377545 0  0.26 0.07667714377545 0  0.28 0.07667714377545 0  0.3 0.07667714377545 0  0.32 0.07667714377545 0  0.34 0.07667714377545 0  0.36 0.07667714377545 0  0.38 0.07667714377545 0  0.4 0.07667714377545 0  0.42 0.07667714377545 0  0.44 0.07667714377545 0  0.46 0.07667714377545 0  0.48 0.07667714377545 0  0.5 0.07667714377545 0  0.52 0.07667714377545 0  0.54 0.07667714377545 0  0.5600000000000001 0.07667714377545 0  0.58 0.07667714377545 0  0.6 0.07667714377545 0  0.62 0.07667714377545 0  0.64 0.07667714377545 0  0.66 0.07667714377545 0  0.68 0.07667714377545 0  0.7 0.07667714377545 0  0.72 0.07667714377545 0  0.74 0.07667714377545 0  0.76 0.07667714377545 0  0.78 0.07667714377545 0  0.8 0.07667714377545 0  0.82 0.07667714377545 0  0.84 0.07667714377545 0  0.86 0.07667714377545 0  0.88 0.07667714377545 0  0.9 0.07667714377545 0  0.92 0.07667714377545 0  0.9399999999999999 0.07667714377545 0  0.96 0.07667714377545 0  0.98 0.07667714377545 0  1 0.07667714377545 0  0 0.1098730133816912 0  0.02 0.1098730133816912 0  0.04 0.1098730133816912 0  0.06 0.1098730133816912 0  0.08 0.1098730133816912 0  0.1 0.1098730133816912 0  0.12 0.1098730133816912 0  0.14 0.1098730133816912 0  0.16 0.1098730133816912 0  0.18 0.1098730133816912 0  0.2 0.1098730133816912 0  0.22 0.1098730133816912 0  0.24 0.1098730133816912 0  0.26 0.1098730133816912 0  0.28 0.1098730133816912 0  0.3 0.1098730133816912 0  0.32 0.1098730133816912 0  0.34 0.1098730133816912 0  0.36 0.1098730133816912 0  0.38 0.1098730133816912 0  0.4 0.1098730133816912 0  0.42 0.1098730133816912 0  0.44 0.1098730133816912 0  0.46 0.1098730133816912 0  0.48 0.1098730133816912 0  0.5 0.1098730133816912 0  0.52 0.1098730133816912 0  0.54 0.1098730133816912 0  0.5600000000000001 0.1098730133816912 0  0.58 0.1098730133816912 0  0.6 0.1098730133816912 0  0.62 0.1098730133816912 0  0.64 0.1098730133816912 0  0.66 0.1098730133816912 0  0.68 0.1098730133816912 0  0.7 0.1098730133816912 0  0.72 0.1098730133816912 0  0.74 0.1098730133816912 0  0.76 0.1098730133816912 0  0.78 0.1098730133816912 0  0.8 0.1098730133816912 0  0.82 0.1098730133816912 0  0.84 0.1098730133816912 0  0.86 0.1098730133816912 0  0.88 0.1098730133816912 0  0.9 0.1098730133816912 0  0.92 0.1098730133816912 0  0.9399999999999999 0.1098730133816912 0  0.96 0.1098730133816912 0  0.98 0.1098730133816912 0  1 0.1098730133816912 0  0 0.1603283563168221 0  0.02 0.1603283563168221 0  0.04 0.1603283563168221 0  0.06 0.1603283563168221 0  0.08 0.1603283563168221 0  0.1 0.1603283563168221 0  0.12 0.1603283563168221 0  0.14 0.1603283563168221 0  0.16 0.1603283563168221 0  0.18 0.1603283563168221 0  0.2 0.1603283563168221 0  0.22 0.1603283563168221 0  0.24 0.1603283563168221 0  0.26 0.1603283563168221 0  0.28 0.1603283563168221 0  0.3 0.1603283563168221 0  0.32 0.1603283563168221 0  0.34 0.1603283563168221 0  0.36 0.1603283563168221 0  0.38 0.1603283563168221 0  0.4 0.1603283563168221 0  0.42 0.1603283563168221 0  0.44 0.1603283563168221 0  0.46 0.1603283563168221 0  0.48 0.1603283563168221 0  0.5 0.1603283563168221 0  0.52 0.1603283563168221 0  0.54 0.1603283563168221 0  0.5600000000000001 0.1603283563168221 0  0.58 0.1603283563168221 0 
[...]
<PointData  Vectors="u_paraw"> 
<DataArray  type="Float64"  Name="u_paraw"  NumberOfComponents="3" format="ascii">9.6081832706070933e-06 3.9337364086467538e-04 0.0000000000000000e+00  9.6081832713334360e-06 3.9337364085087348e-04 0.0000000000000000e+00  9.6081832705245517e-06 3.9337364085308526e-04 0.0000000000000000e+00  9.6081832833511191e-06 3.9337364086827487e-04 0.0000000000000000e+00  9.6081832707226473e-06 3.9337364086265871e-04 0.0000000000000000e+00  9.6081832743543637e-06 3.9337364085722707e-04 0.0000000000000000e+00  9.6081832678998117e-06 3.9337364086507615e-04 0.0000000000000000e+00  9.6081832773587845e-06 3.9337364085617539e-04 0.0000000000000000e+00  9.6081832754603855e-06 3.9337364085871243e-04 0.0000000000000000e+00  9.6081832821295400e-06 3.9337364086278849e-04 0.0000000000000000e+00  9.6081832616103380e-06 3.9337364084664526e-04 0.0000000000000000e+00  9.6081832848203113e-06 3.9337364085552487e-04 0.0000000000000000e+00  9.6081832732483403e-06 3.9337364084049729e-04 0.0000000000000000e+00  9.6081832788609940e-06 3.9337364086056587e-04 0.0000000000000000e+00  9.6081832810070079e-06 3.9337364086989115e-04 0.0000000000000000e+00  9.6081832742553168e-06 3.9337364085064542e-04 0.0000000000000000e+00  9.6081832897891607e-06 3.9337364086515205e-04 0.0000000000000000e+00  9.6081832764013306e-06 3.9337364085009362e-04 0.0000000000000000e+00  9.6081832773092602e-06 3.9337364085573033e-04 0.0000000000000000e+00  9.6081832797028923e-06 3.9337364085835410e-04 0.0000000000000000e+00  9.6081832800165401e-06 3.9337364085489663e-04 0.0000000000000000e+00  9.6081832795708297e-06 3.9337364084410768e-04 0.0000000000000000e+00  9.6081832789435323e-06 3.9337364086475089e-04 0.0000000000000000e+00  9.6081832741232542e-06 3.9337364085538452e-04 0.0000000000000000e+00  9.6081832786298845e-06 3.9337364085558938e-04 0.0000000000000000e+00  9.6081832773257688e-06 3.9337364086618204e-04 0.0000000000000000e+00  9.6081832708216925e-06 3.9337364085349687e-04 0.0000000000000000e+00  9.6081832774413228e-06 3.9337364085432087e-04 0.0000000000000000e+00  9.6081832683785378e-06 3.9337364085348820e-04 0.0000000000000000e+00  9.6081832840774600e-06 3.9337364085717232e-04 0.0000000000000000e+00  9.6081832781181428e-06 3.9337364085704221e-04 0.0000000000000000e+00  9.6081832781841741e-06 3.9337364085180552e-04 0.0000000000000000e+00  9.6081832743378550e-06 3.9337364086429553e-04 0.0000000000000000e+00  9.6081832704089978e-06 3.9337364084522441e-04 0.0000000000000000e+00  9.6081832765333932e-06 3.9337364085343399e-04 0.0000000000000000e+00  9.6081832719277160e-06 3.9337364085497139e-04 0.0000000000000000e+00  9.6081832768635497e-06 3.9337364085310656e-04 0.0000000000000000e+00  9.6081832823936635e-06 3.9337364086012135e-04 0.0000000000000000e+00  9.6081832768965654e-06 3.9337364085537254e-04 0.0000000000000000e+00  9.6081832726210429e-06 3.9337364084597251e-04 0.0000000000000000e+00  9.6081832685436161e-06 3.9337364085046328e-04 0.0000000000000000e+00  9.6081832758565733e-06 3.9337364086025145e-04 0.0000000000000000e+00  9.6081832741892855e-06 3.9337364085545928e-04 0.0000000000000000e+00  9.6081832875110842e-06 3.9337364085643506e-04 0.0000000000000000e+00  9.6081832784978219e-06 3.9337364085929735e-04 0.0000000000000000e+00  9.6081832781016358e-06 3.9337364086593267e-04 0.0000000000000000e+00  9.6081832848203113e-06 3.9337364086010183e-04 0.0000000000000000e+00  9.6081832814527200e-06 3.9337364086292943e-04 0.0000000000000000e+00  9.6081832843250782e-06 3.9337364086262585e-04 0.0000000000000000e+00  9.6081832743708707e-06 3.9337364085448350e-04 0.0000000000000000e+00  9.6081832706070917e-06 -1.0428808025247252e-15 0.0000000000000000e+00  6.9611537237444562e-05 7.7430442260121169e-04 0.0000000000000000e+00  6.9611537233913682e-05 7.7430442259926013e-04 0.0000000000000000e+00  6.9611537249866836e-05 7.7430442261751831e-04 0.0000000000000000e+00  6.9611537246239664e-05 7.7430442261135983e-04 0.0000000000000000e+00  6.9611537239177917e-05 7.7430442261871072e-04 0.0000000000000000e+00  6.9611537242612493e-05 7.7430442261790895e-04 0.0000000000000000e+00  6.9611537244345834e-05 7.7430442260710921e-04 0.0000000000000000e+00  6.9611537243703851e-05 7.7430442261495992e-04 0.0000000000000000e+00  6.9611537228617368e-05 7.7430442260437811e-04 0.0000000000000000e+00  6.9611537238568026e-05 7.7430442259331816e-04 0.0000000000000000e+00  6.9611537238760621e-05 7.7430442260828123e-04 0.0000000000000000e+00  6.9611537244923619e-05 7.7430442260559241e-04 0.0000000000000000e+00  6.9611537240237169e-05 7.7430442260194841e-04 0.0000000000000000e+00  6.9611537248165601e-05 7.7430442260233872e-04 0.0000000000000000e+00  6.9611537242355700e-05 7.7430442260312141e-04 0.0000000000000000e+00  6.9611537237155677e-05 7.7430442259915117e-04 0.0000000000000000e+00  6.9611537249224866e-05 7.7430442259978000e-04 0.0000000000000000e+00  6.9611537240044587e-05 7.7430442259947849e-04 0.0000000000000000e+00  6.9611537249321170e-05 7.7430442260602501e-04 0.0000000000000000e+00  6.9611537240782861e-05 7.7430442259719960e-04 0.0000000000000000e+00  6.9611537247812517e-05 7.7430442260253594e-04 0.0000000000000000e+00  6.9611537242227303e-05 7.7430442260383492e-04 0.0000000000000000e+00  6.9611537242387806e-05 7.7430442259394700e-04 0.0000000000000000e+00  6.9611537237155677e-05 7.7430442260062774e-04 0.0000000000000000e+00  6.9611537246014977e-05 7.7430442260344461e-04 0.0000000000000000e+00  6.9611537241553228e-05 7.7430442260661048e-04 0.0000000000000000e+00  6.9611537241456937e-05 7.7430442260455049e-04 0.0000000000000000e+00  6.9611537239787794e-05 7.7430442259897769e-04 0.0000000000000000e+00  6.9611537236963082e-05 7.7430442260034802e-04 0.0000000000000000e+00  6.9611537244410033e-05 7.7430442259579014e-04 0.0000000000000000e+00  6.9611537242933485e-05 7.7430442259654908e-04 0.0000000000000000e+00  6.9611537240044587e-05 7.7430442259438068e-04 0.0000000000000000e+00  6.9611537239691490e-05 7.7430442259596361e-04 0.0000000000000000e+00  6.9611537237476668e-05 7.7430442259633224e-04 0.0000000000000000e+00  6.9611537241713730e-05 7.7430442259843982e-04 0.0000000000000000e+00  6.9611537241296434e-05 7.7430442260153641e-04 0.0000000000000000e+00  6.9611537244987817e-05 7.7430442259763328e-04 0.0000000000000000e+00  6.9611537241392739e-05 7.7430442260734774e-04 0.0000000000000000e+00  6.9611537245501391e-05 7.7430442259934632e-04 0.0000000000000000e+00  6.9611537247298930e-05 7.7430442260019200e-04 0.0000000000000000e+00  6.9611537242227303e-05 7.7430442260054317e-04 0.0000000000000000e+00  6.9611537247908807e-05 7.7430442260487575e-04 0.0000000000000000e+00  6.9611537245533496e-05 7.7430442261010161e-04 0.0000000000000000e+00  6.9611537236866791e-05 7.7430442258516496e-04 0.0000000000000000e+00  6.9611537247973006e-05 7.7430442260066905e-04 0.0000000000000000e+00  6.9611537246111268e-05 7.7430442259999684e-04 0.0000000000000000e+00  6.9611537246881648e-05 7.7430442260065159e-04 0.0000000000000000e+00  6.9611537250187841e-05 7.7430442260687069e-04 0.0000000000000000e+00  6.9611537239948283e-05 7.7430442260487575e-04 0.0000000000000000e+00  6.9611537239819887e-05 7.7430442259850065e-04 0.0000000000000000e+00  6.9611537237444576e-05 7.4606357321682182e-04 0.0000000000000000e+00  -9.0432300222227237e-05 -9.6425575059344570e-07 0.0000000000000000e+00  -9.0432300219269669e-05 -9.6425574651684554e-07 0.0000000000000000e+00  -9.0432300219511107e-05 -9.6425575905022265e-07 0.0000000000000000e+00  -9.0432300210698739e-05 -9.6425573753965155e-07 0.0000000000000000e+00  -9.0432300218424642e-05 -9.6425574881535414e-07 0.0000000000000000e+00  -9.0432300228383825e-05 -9.6425574968271588e-07 0.0000000000000000e+00  -9.0432300214803122e-05 -9.6425574296066241e-07 0.0000000000000000e+00  -9.0432300217881416e-05 -9.6425574963934779e-07 0.0000000000000000e+00  -9.0432300233453947e-05 -9.6425575722876300e-07 0.0000000000000000e+00  -9.0432300213897745e-05 -9.6425574239687728e-07 0.0000000000000000e+00  -9.0432300224400154e-05 -9.6425574764441579e-07 0.0000000000000000e+00  -9.0432300222046162e-05 -9.6425575150417553e-07 0.0000000000000000e+00  -9.0432300215829224e-05 -9.6425575705529065e-07 0.0000000000000000e+00  -9.0432300208887986e-05 -9.6425573714933877e-07 0.0000000000000000e+00  -9.0432300217579628e-05 -9.6425575558077570e-07 0.0000000000000000e+00  -9.0432300221201148e-05 -9.6425577253769768e-07 0.0000000000000000e+00  -9.0432300209250136e-05 -9.6425573905753459e-07 0.0000000000000000e+00  -9.0432300219511107e-05 -9.6425575618792891e-07 0.0000000000000000e+00  -9.0432300209250136e-05 -9.6425574890209031e-07 0.0000000000000000e+00  -9.0432300219511107e-05 -9.6425574963934779e-07 0.0000000000000000e+00  -9.0432300213475232e-05 -9.6425574499896249e-07 0.0000000000000000e+00  -9.0432300222649750e-05 -9.6425576290998238e-07 0.0000000000000000e+00  -9.0432300212509506e-05 -9.6425574278719006e-07 0.0000000000000000e+00  -9.0432300223132627e-05 -9.6425575462667779e-07 0.0000000000000000e+00  -9.0432300228806338e-05 -9.6425577379537220e-07 0.0000000000000000e+00  -9.0432300212449143e-05 -9.6425574543264336e-07 0.0000000000000000e+00  -9.0432300222710113e-05 -9.6425575046334144e-07 0.0000000000000000e+00  -9.0432300228564900e-05 -9.6425575852980561e-07 0.0000000000000000e+00  -9.0432300219812895e-05 -9.6425575506035865e-07 0.0000000000000000e+00  -9.0432300227418085e-05 -9.6425576529522716e-07 0.0000000000000000e+00  -9.0432300217398553e-05 -9.6425575146080744e-07 0.0000000000000000e+00  -9.0432300224520867e-05 -9.6425575367257987e-07 0.0000000000000000e+00  -9.0432300210155513e-05 -9.6425574374128797e-07 0.0000000000000000e+00  -9.0432300216976039e-05 -9.6425574196319641e-07 0.0000000000000000e+00  -9.0432300230798167e-05 -9.6425575922369500e-07 0.0000000000000000e+00  -9.0432300221804737e-05 -9.6425575965737587e-07 0.0000000000000000e+00  -9.0432300210759102e-05 -9.6425574868524988e-07 0.0000000000000000e+00  -9.0432300220718271e-05 -9.6425576486154629e-07 0.0000000000000000e+00  -9.0432300220416484e-05 -9.6425576169567595e-07 0.0000000000000000e+00  -9.0432300221020073e-05 -9.6425575974411204e-07 0.0000000000000000e+00  -9.0432300218485005e-05 -9.6425574491222632e-07 0.0000000000000000e+00  -9.0432300226874859e-05 -9.6425577106318272e-07 0.0000000000000000e+00  -9.0432300217519265e-05 -9.6425576425439308e-07 0.0000000000000000e+00  -9.0432300221804737e-05 -9.6425574378465606e-07 0.0000000000000000e+00  -9.0432300220597559e-05 -9.6425576447123351e-07 0.0000000000000000e+00  -9.0432300218726443e-05 -9.6425575831296517e-07 0.0000000000000000e+00  -9.0432300220657922e-05 -9.6425576061147378e-07 0.0000000000000000e+00  -9.0432300218364292e-05 -9.6425576087168230e-07 0.0000000000000000e+00  -9.0432300219148957e-05 -9.6425575033323718e-07 0.0000000000000000e+00  -9.0432300211121253e-05 -9.6425574356781563e-07 0.0000000000000000e+00  -9.0432300222227237e-05 5.1435632028418914e-04 0.0000000000000000e+00  6.7066553119364233e-05 -1.5770067107734320e-05 0.0000000000000000e+00  6.7066553114822388e-05 -1.5770067115974257e-05 0.0000000000000000e+00  6.7066553113849127e-05 -1.5770067112504817e-05 0.0000000000000000e+00  6.7066553129313034e-05 -1.5770067112678275e-05 0.0000000000000000e+00  6.7066553123365372e-05 -1.5770067122999880e-05 0.0000000000000000e+00  6.7066553119256083e-05 -1.5770067115540583e-05 0.0000000000000000e+00  6.7066553113200299e-05 -1.5770067124647867e-05 0.0000000000000000e+00  6.7066553113308421e-05 -1.5770067127770383e-05 0.0000000000000000e+00  6.7066553120553751e-05 -1.5770067121785587e-05 0.0000000000000000e+00  6.7066553111578211e-05 -1.5770067127163216e-05 0.0000000000000000e+00  6.7066553114497954e-05 -1.5770067139046086e-05 0.0000000000000000e+00  6.7066553117742131e-05 -1.5770067129591843e-05 0.0000000000000000e+00  6.7066553111145655e-05 -1.5770067123953978e-05 0.0000000000000000e+00  6.7066553116660747e-05 -1.5770067136877668e-05 0.0000000000000000e+00  6.7066553118715378e-05 -1.5770067118402890e-05 0.0000000000000000e+00  6.7066553116011907e-05 -1.5770067131153080e-05 0.0000000000000000e+00  6.7066553124663040e-05 -1.5770067131326553e-05 0.0000000000000000e+00  6.7066553123797928e-05 -1.5770067115020179e-05 0.0000000000000000e+00  6.7066553118282836e-05 -1.5770067129678565e-05 0.0000000000000000e+00  6.7066553121094457e-05 -1.5770067123867242e-05 0.0000000000000000e+00  6.7066553127042105e-05 -1.5770067104958783e-05 0.0000000000000000e+00  6.7066553117742144e-05 -1.5770067123780506e-05 0.0000000000000000e+00  6.7066553121635148e-05 -1.5770067118142654e-05 0.0000000000000000e+00  6.7066553111686333e-05 -1.5770067120050877e-05 0.0000000000000000e+00  6.7066553120121195e-05 -1.5770067116321195e-05 0.0000000000000000e+00  6.7066553120121195e-05 -1.5770067124474395e-05 0.0000000000000000e+00  6.7066553113632855e-05 -1.5770067116234458e-05 0.0000000000000000e+00  6.7066553102710792e-05 -1.5770067135056208e-05 0.0000000000000000e+00  6.7066553118282836e-05 -1.5770067129852119e-05 0.0000000000000000e+00  6.7066553120986321e-05 -1.5770067122826408e-05 0.0000000000000000e+00  6.7066553118174700e-05 -1.5770067117448765e-05 0.0000000000000000e+00  6.7066553115254944e-05 -1.5770067134535791e-05 0.0000000000000000e+00  6.7066553118715392e-05 -1.5770067125862174e-05 0.0000000000000000e+00  6.7066553114281683e-05 -1.5770067129071412e-05 0.0000000000000000e+00  6.7066553115038659e-05 -1.5770067120311140e-05 0.0000000000000000e+00  6.7066553112010767e-05 -1.5770067130372455e-05 0.0000000000000000e+00  6.7066553115471215e-05 -1.5770067131933706e-05 0.0000000000000000e+00  6.7066553112767743e-05 -1.5770067126556063e-05 0.0000000000000000e+00  6.7066553116660747e-05 -1.5770067123260089e-05 0.0000000000000000e+00  6.7066553122932816e-05 -1.5770067126382591e-05 0.0000000000000000e+00  6.7066553124122349e-05 -1.5770067119790723e-05 0.0000000000000000e+00  6.7066553103035213e-05 -1.5770067124214186e-05 0.0000000000000000e+00  6.7066553129745590e-05 -1.5770067117622237e-05 0.0000000000000000e+00  6.7066553130286282e-05 -1.5770067109469037e-05 0.0000000000000000e+00  6.7066553120553751e-05 -1.5770067126122382e-05 0.0000000000000000e+00  6.7066553120986321e-05 -1.5770067133234749e-05 0.0000000000000000e+00  6.7066553124122349e-05 -1.5770067113805927e-05 0.0000000000000000e+00  6.7066553123581657e-05 -1.5770067121698837e-05 0.0000000000000000e+00  6.7066553119904924e-05 -1.5770067136097042e-05 0.0000000000000000e+00  6.7066553120986321e-05 -1.5770067123520297e-05 0.0000000000000000e+00  6.7066553119364233e-05 -1.3048552371158051e-04 0.0000000000000000e+00  1.2135456436157374e-04 9.7374649942888458e-04 0.0000000000000000e+00  1.2135456436236953e-04 9.7374649941786909e-04 0.0000000000000000e+00  1.2135456436077798e-04 9.7374649943356855e-04 0.0000000000000000e+00  1.2135456435043276e-04 9.7374649942324662e-04 0.0000000000000000e+00  1.2135456435732956e-04 9.7374649944024692e-04 0.0000000000000000e+00  1.2135456434548123e-04 9.7374649942628304e-04 0.0000000000000000e+00  1.2135456433610865e-04 9.7374649941457236e-04 0.0000000000000000e+00  1.2135456434972540e-04 9.7374649943998736e-04 0.0000000000000000e+00  1.2135456433566655e-04 9.7374649940893581e-04 0.0000000000000000e+00  1.2135456434424334e-04 9.7374649941951632e-04 0.0000000000000000e+00  1.2135456434309387e-04 9.7374649942420137e-04 0.0000000000000000e+00  1.2135456435114012e-04 9.7374649943495666e-04 0.0000000000000000e+00  1.2135456434344755e-04 9.7374649941934285e-04 0.0000000000000000e+00  1.2135456434892963e-04 9.7374649943842480e-04 0.0000000000000000e+00  1.2135456435564958e-04 9.7374649942454973e-04 0.0000000000000000e+00  1.2135456435697588e-04 9.7374649943287369e-04 0.0000000000000000e+00  1.2135456434769174e-04 9.7374649940624568e-04 0.0000000000000000e+00  1.2135456435759483e-04 9.7374649941752410e-04 0.0000000000000000e+00  1.2135456435467695e-04 9.7374649943443494e-04 0.0000000000000000e+00  1.2135456435273169e-04 9.7374649942801646e-04 0.0000000000000000e+00  1.2135456435193591e-04 9.7374649941943229e-04 0.0000000000000000e+00  1.2135456434512755e-04 9.7374649941700097e-04 0.0000000000000000e+00  1.2135456435043276e-04 9.7374649940772020e-04 0.0000000000000000e+00  1.2135456434654227e-04 9.7374649943001411e-04 0.0000000000000000e+00  1.2135456434495070e-04 9.7374649941205701e-04 0.0000000000000000e+00  1.2135456435255486e-04 9.7374649942211840e-04 0.0000000000000000e+00  1.2135456435485379e-04 9.7374649942836341e-04 0.0000000000000000e+00  1.2135456435954008e-04 9.7374649944033300e-04 0.0000000000000000e+00  1.2135456435954008e-04 9.7374649941180222e-04 0.0000000000000000e+00  1.2135456435175907e-04 9.7374649940936819e-04 0.0000000000000000e+00  1.2135456435591483e-04 9.7374649943955238e-04 0.0000000000000000e+00  1.2135456435379275e-04 9.7374649942558785e-04 0.0000000000000000e+00  1.2135456434804542e-04 9.7374649941882243e-04 0.0000000000000000e+00  1.2135456435485379e-04 9.7374649940407728e-04 0.0000000000000000e+00  1.2135456435980534e-04 9.7374649942325140e-04 0.0000000000000000e+00  1.2135456435246644e-04 9.7374649941908264e-04 0.0000000000000000e+00  1.2135456435600326e-04 9.7374649943452168e-04 0.0000000000000000e+00  1.2135456434831068e-04 9.7374649939878637e-04 0.0000000000000000e+00  1.2135456434724963e-04 9.7374649942185820e-04 0.0000000000000000e+00  1.2135456435290854e-04 9.7374649941847548e-04 0.0000000000000000e+00  1.2135456436139691e-04 9.7374649943704245e-04 0.0000000000000000e+00  1.2135456435343907e-04 9.7374649942593480e-04 0.0000000000000000e+00  1.2135456435715272e-04 9.7374649942012347e-04 0.0000000000000000e+00  1.2135456435759483e-04 9.7374649942367966e-04 0.0000000000000000e+00  1.2135456435370432e-04 9.7374649943695029e-04 0.0000000000000000e+00  1.2135456435290854e-04 9.7374649940850082e-04 0.0000000000000000e+00  1.2135456435724115e-04 9.7374649942845557e-04 0.0000000000000000e+00  1.2135456434910646e-04 9.7374649941951632e-04 0.0000000000000000e+00  1.2135456435936323e-04 9.7374649943261348e-04 0.0000000000000000e+00  1.2135456437112315e-04 9.7374649944605759e-04 0.0000000000000000e+00  1.2135456436157374e-04 -2.2460309014316223e-04 0.0000000000000000e+00  -8.0114828216280918e-04 -2.8035737936754276e-03 0.0000000000000000e+00  -8.0114828217148389e-04 -2.8035737936967647e-03 0.0000000000000000e+00  -8.0114828217326068e-04 -2.8035737936766424e-03 0.0000000000000000e+00  -8.0114828218977394e-04 -2.8035737936972847e-03 0.0000000000000000e+00  -8.0114828219625379e-04 -2.8035737936952031e-03 0.0000000000000000e+00  -8.0114828218799715e-04 -2.8035737937064809e-03 0.0000000000000000e+00  -8.0114828217576887e-04 -2.8035737936618942e-03 0.0000000000000000e+00  -8.0114828217660511e-04 -2.8035737937012768e-03 0.0000000000000000e+00  -8.0114828216385436e-04 -2.8035737936724803e-03 0.0000000000000000e+00  -8.0114828217043871e-04 -2.8035737937049153e-03 0.0000000000000000e+00  -8.0114828217211099e-04 -2.8035737936998890e-03 0.0000000000000000e+00  -8.0114828216165950e-04 -2.8035737936978073e-03 0.0000000000000000e+00  -8.0114828216134595e-04 -2.8035737936612003e-03 0.0000000000000000e+00  -8.0114828216803482e-04 -2.8035737936723025e-03 0.0000000000000000e+00  -8.0114828217357412e-04 -2.8035737936900045e-03 0.0000000000000000e+00  -8.0114828217231991e-04 -2.8035737936872212e-03 0.0000000000000000e+00  -8.0114828217378315e-04 -2.8035737936743842e-03 0.0000000000000000e+00  -8.0114828217075216e-04 -2.8035737936801166e-03 0.0000000000000000e+00  -8.0114828217211088e-04 -2.8035737936754250e-03 0.0000000000000000e+00  -8.0114828217587339e-04 -2.8035737936835782e-03 0.0000000000000000e+00  -8.0114828218235334e-04 -2.8035737936789023e-03 0.0000000000000000e+00  -8.0114828218005396e-04 -2.8035737936764659e-03 0.0000000000000000e+00  -8.0114828217545532e-04 -2.8035737936761189e-03 0.0000000000000000e+00  -8.0114828217879987e-04 -2.8035737936827187e-03 0.0000000000000000e+00  -8.0114828217963589e-04 -2.8035737936814966e-03 0.0000000000000000e+00  -8.0114828217524628e-04 -2.8035737936858334e-03 0.0000000000000000e+00  -8.0114828