<?xml version="1.0"?>
<VTKFile type="UnstructuredGrid"  version="0.1"  >
<UnstructuredGrid>
<Piece  NumberOfPoints="2601" NumberOfCells="5000">
<Points>
<DataArray  type="Float64"  NumberOfComponents="3"  format="ascii">0 0 0  0.02 0 0  0.04 0 0  0.06 0 0  0.08 0 0  0.1 0 0  0.12 0 0  0.14 0 0  0.16 0 0  0.18 0 0  0.2 0 0  0.22 0 0  0.24 0 0  0.26 0 0  0.28 0 0  0.3 0 0  0.32 0 0  0.34 0 0  0.36 0 0  0.38 0 0  0.4 0 0  0.42 0 0  0.44 0 0  0.46 0 0  0.48 0 0  0.5 0 0  0.52 0 0  0.54 0 0  0.5600000000000001 0 0  0.58 0 0  0.6 0 0  0.62 0 0  0.64 0 0  0.66 0 0  0.68 0 0  0.7 0 0  0.72 0 0  0.74 0 0  0.76 0 0  0.78 0 0  0.8 0 0  0.82 0 0  0.84 0 0  0.86 0 0  0.88 0 0  0.9 0 0  0.92 0 0  0.9399999999999999 0 0  0.96 0 0  0.98 0 0  1 0 0  0 0.01313563088723984 0  0.02 0.01313563088723984 0  0.04 0.01313563088723984 0  0.06 0.01313563088723984 0  0.08 0.01313563088723984 0  0.1 0.01313563088723984 0  0.12 0.01313563088723984 0  0.14 0.01313563088723984 0  0.16 0.01313563088723984 0  0.18 0.01313563088723984 0  0.2 0.01313563088723984 0  0.22 0.01313563088723984 0  0.24 0.01313563088723984 0  0.26 0.01313563088723984 0  0.28 0.01313563088723984 0  0.3 0.01313563088723984 0  0.32 0.01313563088723984 0  0.34 0.01313563088723984 0  0.36 0.01313563088723984 0  0.38 0.01313563088723984 0  0.4 0.01313563088723984 0  0.42 0.01313563088723984 0  0.44 0.01313563088723984 0  0.46 0.01313563088723984 0  0.48 0.01313563088723984 0  0.5 0.01313563088723984 0  0.52 0.01313563088723984 0  0.54 0.01313563088723984 0  0.5600000000000001 0.01313563088723984 0  0.58 0.01313563088723984 0  0.6 0.01313563088723984 0  0.62 0.01313563088723984 0  0.64 0.01313563088723984 0  0.66 0.01313563088723984 0  0.68 0.01313563088723984 0  0.7 0.01313563088723984 0  0.72 0.01313563088723984 0  0.74 0.01313563088723984 0  0.76 0.01313563088723984 0  0.78 0.01313563088723984 0  0.8 0.01313563088723984 0  0.82 0.01313563088723984 0  0.84 0.01313563088723984 0  0.86 0.01313563088723984 0  0.88 0.01313563088723984 0  0.9 0.01313563088723984 0  0.92 0.01313563088723984 0  0.9399999999999999 0.01313563088723984 0  0.96 0.01313563088723984 0  0.98 0.01313563088723984 0  1 0.01313563088723984 0  0 0.02664639863733726 0  0.02 0.02664639863733726 0  0.04 0.02664639863733726 0  0.06 0.02664639863733726 0  0.08 0.02664639863733726 0  0.1 0.02664639863733726 0  0.12 0.02664639863733726 0  0.14 0.02664639863733726 0  0.16 0.02664639863733726 0  0.18 0.02664639863733726 0  0.2 0.02664639863733726 0  0.22 0.02664639863733726 0  0.24 0.02664639863733726 0  0.26 0.02664639863733726 0  0.28 0.02664639863733726 0  0.3 0.02664639863733726 0  0.32 0.02664639863733726 0  0.34 0.02664639863733726 0  0.36 0.02664639863733726 0  0.38 0.02664639863733726 0  0.4 0.02664639863733726 0  0.42 0.02664639863733726 0  0.44 0.02664639863733726 0  0.46 0.02664639863733726 0  0.48 0.02664639863733726 0  0.5 0.02664639863733726 0  0.52 0.02664639863733726 0  0.54 0.02664639863733726 0  0.5600000000000001 0.02664639863733726 0  0.58 0.02664639863733726 0  0.6 0.02664639863733726 0  0.62 0.02664639863733726 0  0.64 0.02664639863733726 0  0.66 0.02664639863733726 0  0.68 0.02664639863733726 0  0.7 0.02664639863733726 0  0.72 0.02664639863733726 0  0.74 0.02664639863733726 0  0.76 0.02664639863733726 0  0.78 0.02664639863733726 0  0.8 0.02664639863733726 0  0.82 0.02664639863733726 0  0.84 0.02664639863733726 0  0.86 0.02664639863733726 0  0.88 0.02664639863733726 0  0.9 0.02664639863733726 0  0.92 0.02664639863733726 0  0.9399999999999999 0.02664639863733726 0  0.96 0.02664639863733726 0  0.98 0.02664639863733726 0  1 0.02664639863733726 0  0 0.04101652939099896 0  0.02 0.04101652939099896 0  0.04 0.04101652939099896 0  0.06 0.04101652939099896 0  0.08 0.04101652939099896 0  0.1 0.04101652939099896 0  0.12 0.04101652939099896 0  0.14 0.04101652939099896 0  0.16 0.04101652939099896 0  0.18 0.04101652939099896 0  0.2 0.04101652939099896 0  0.22 0.04101652939099896 0  0.24 0.04101652939099896 0  0.26 0.04101652939099896 0  0.28 0.04101652939099896 0  0.3 0.04101652939099896 0  0.32 0.04101652939099896 0  0.34 0.04101652939099896 0  0.36 0.04101652939099896 0  0.38 0.04101652939099896 0  0.4 0.04101652939099896 0  0.42 0.04101652939099896 0  0.44 0.04101652939099896 0  0.46 0.04101652939099896 0  0.48 0.04101652939099896 0  0.5 0.04101652939099896 0  0.52 0.04101652939099896 0  0.54 0.04101652939099896 0  0.5600000000000001 0.04101652939099896 0  0.58 0.04101652939099896 0  0.6 0.04101652939099896 0  0.62 0.04101652939099896 0  0.64 0.04101652939099896 0  0.66 0.04101652939099896 0  0.68 0.04101652939099896 0  0.7 0.04101652939099896 0  0.72 0.04101652939099896 0  0.74 0.04101652939099896 0  0.76 0.04101652939099896 0  0.78 0.04101652939099896 0  0.8 0.04101652939099896 0  0.82 0.04101652939099896 0  0.84 0.04101652939099896 0  0.86 0.04101652939099896 0  0.88 0.04101652939099896 0  0.9 0.04101652939099896 0  0.92 0.04101652939099896 0  0.9399999999999999 0.04101652939099896 0  0.96 0.04101652939099896 0  0.98 0.04101652939099896 0  1 0.04101652939099896 0  0 0.05705811164099547 0  0.02 0.05705811164099547 0  0.04 0.05705811164099547 0  0.06 0.05705811164099547 0  0.08 0.05705811164099547 0  0.1 0.05705811164099547 0  0.12 0.05705811164099547 0  0.14 0.05705811164099547 0  0.16 0.05705811164099547 0  0.18 0.05705811164099547 0  0.2 0.05705811164099547 0  0.22 0.05705811164099547 0  0.24 0.05705811164099547 0  0.26 0.05705811164099547 0  0.28 0.05705811164099547 0  0.3 0.05705811164099547 0  0.32 0.05705811164099547 0  0.34 0.05705811164099547 0  0.36 0.05705811164099547 0  0.38 0.05705811164099547 0  0.4 0.05705811164099547 0  0.42 0.05705811164099547 0  0.44 0.05705811164099547 0  0.46 0.05705811164099547 0  0.48 0.05705811164099547 0  0.5 0.05705811164099547 0  0.52 0.05705811164099547 0  0.54 0.05705811164099547 0  0.5600000000000001 0.05705811164099547 0  0.58 0.05705811164099547 0  0.6 0.05705811164099547 0  0.62 0.05705811164099547 0  0.64 0.05705811164099547 0  0.66 0.05705811164099547 0  0.68 0.05705811164099547 0  0.7 0.05705811164099547 0  0.72 0.05705811164099547 0  0.74 0.05705811164099547 0  0.76 0.05705811164099547 0  0.78 0.05705811164099547 0  0.8 0.05705811164099547 0  0.82 0.05705811164099547 0  0.84 0.05705811164099547 0  0.86 0.05705811164099547 0  0.88 0.05705811164099547 0  0.9 0.05705811164099547 0  0.92 0.05705811164099547 0  0.9399999999999999 0.05705811164099547 0  0.96 0.05705811164099547 0  0.98 0.05705811164099547 0  1 0.05705811164099547 0  0 0.07667714377545 0  0.02 0.07667714377545 0  0.04 0.07667714377545 0  0.06 0.07667714377545 0  0.08 0.07667714377545 0  0.1 0.07667714377545 0  0.12 0.07667714377545 0  0.14 0.07667714377545 0  0.16 0.07667714377545 0  0.18 0.07667714377545 0  0.2 0.07667714377545 0  0.22 0.07667714377545 0  0.24 0.07667714377545 0  0.26 0.07667714377545 0  0.28 0.07667714377545 0  0.3 0.07667714377545 0  0.32 0.07667714377545 0  0.34 0.07667714377545 0  0.36 0.07667714377545 0  0.38 0.07667714377545 0  0.4 0.07667714377545 0  0.42 0.07667714377545 0  0.44 0.07667714377545 0  0.46 0.07667714377545 0  0.48 0.07667714377545 0  0.5 0.07667714377545 0  0.52 0.07667714377545 0  0.54 0.07667714377545 0  0.5600000000000001 0.07667714377545 0  0.58 0.07667714377545 0  0.6 0.07667714377545 0  0.62 0.07667714377545 0  0.64 0.07667714377545 0  0.66 0.07667714377545 0  0.68 0.07667714377545 0  0.7 0.07667714377545 0  0.72 0.07667714377545 0  0.74 0.07667714377545 0  0.76 0.07667714377545 0  0.78 0.07667714377545 0  0.8 0.07667714377545 0  0.82 0.07667714377545 0  0.84 0.07667714377545 0  0.86 0.07667714377545 0  0.88 0.07667714377545 0  0.9 0.07667714377545 0  0.92 0.07667714377545 0  0.9399999999999999 0.07667714377545 0  0.96 0.07667714377545 0  0.98 0.07667714377545 0  1 0.07667714377545 0  0 0.1098730133816912 0  0.02 0.1098730133816912 0  0.04 0.1098730133816912 0  0.06 0.1098730133816912 0  0.08 0.1098730133816912 0  0.1 0.1098730133816912 0  0.12 0.1098730133816912 0  0.14 0.1098730133816912 0  0.16 0.1098730133816912 0  0.18 0.1098730133816912 0  0.2 0.1098730133816912 0  0.22 0.1098730133816912 0  0.24 0.1098730133816912 0  0.26 0.1098730133816912 0  0.28 0.1098730133816912 0  0.3 0.1098730133816912 0  0.32 0.1098730133816912 0  0.34 0.1098730133816912 0  0.36 0.1098730133816912 0  0.38 0.1098730133816912 0  0.4 0.1098730133816912 0  0.42 0.1098730133816912 0  0.44 0.1098730133816912 0  0.46 0.1098730133816912 0  0.48 0.1098730133816912 0  0.5 0.1098730133816912 0  0.52 0.1098730133816912 0  0.54 0.1098730133816912 0  0.5600000000000001 0.1098730133816912 0  0.58 0.1098730133816912 0  0.6 0.1098730133816912 0  0.62 0.1098730133816912 0  0.64 0.1098730133816912 0  0.66 0.1098730133816912 0  0.68 0.1098730133816912 0  0.7 0.1098730133816912 0  0.72 0.1098730133816912 0  0.74 0.1098730133816912 0  0.76 0.1098730133816912 0  0.78 0.1098730133816912 0  0.8 0.1098730133816912 0  0.82 0.1098730133816912 0  0.84 0.1098730133816912 0  0.86 0.1098730133816912 0  0.88 0.1098730133816912 0  0.9 0.1098730133816912 0  0.92 0.1098730133816912 0  0.9399999999999999 0.1098730133816912 0  0.96 0.1098730133816912 0  0.98 0.1098730133816912 0  1 0.1098730133816912 0  0 0.1603283563168221 0  0.02 0.1603283563168221 0  0.04 0.1603283563168221 0  0.06 0.1603283563168221 0  0.08 0.1603283563168221 0  0.1 0.1603283563168221 0  0.12 0.1603283563168221 0  0.14 0.1603283563168221 0  0.16 0.1603283563168221 0  0.18 0.1603283563168221 0  0.2 0.1603283563168221 0  0.22 0.1603283563168221 0  0.24 0.1603283563168221 0  0.26 0.1603283563168221 0  0.28 0.1603283563168221 0  0.3 0.1603283563168221 0  0.32 0.1603283563168221 0  0.34 0.1603283563168221 0  0.36 0.1603283563168221 0  0.38 0.1603283563168221 0  0.4 0.1603283563168221 0  0.42 0.1603283563168221 0  0.44 0.1603283563168221 0  0.46 0.1603283563168221 0  0.48 0.1603283563168221 0  0.5 0.1603283563168221 0  0.52 0.1603283563168221 0  0.54 0.1603283563168221 0  0.5600000000000001 0.1603283563168221 0  0.58 0.1603283563168221 0 
[...]
<PointData  Vectors="u_paraw"> 
<DataArray  type="Float64"  Name="u_paraw"  NumberOfComponents="3" format="ascii">-4.6224777054605126e-05 -4.7111231963922317e-04 0.0000000000000000e+00  -4.6224777045393772e-05 -4.7111231962648379e-04 0.0000000000000000e+00  -4.6224777035324000e-05 -4.7111231962822936e-04 0.0000000000000000e+00  -4.6224777034977347e-05 -4.7111231962146388e-04 0.0000000000000000e+00  -4.6224777037882724e-05 -4.7111231962222282e-04 0.0000000000000000e+00  -4.6224777037090335e-05 -4.7111231962105210e-04 0.0000000000000000e+00  -4.6224777047028037e-05 -4.7111231963031054e-04 0.0000000000000000e+00  -4.6224777023636477e-05 -4.7111231961731161e-04 0.0000000000000000e+00  -4.6224777054093376e-05 -4.7111231963307591e-04 0.0000000000000000e+00  -4.6224777041200782e-05 -4.7111231962795782e-04 0.0000000000000000e+00  -4.6224777038229377e-05 -4.7111231962932457e-04 0.0000000000000000e+00  -4.6224777046450266e-05 -4.7111231962473839e-04 0.0000000000000000e+00  -4.6224777037519543e-05 -4.7111231963567734e-04 0.0000000000000000e+00  -4.6224777040722053e-05 -4.7111231963650133e-04 0.0000000000000000e+00  -4.6224777039170322e-05 -4.7111231962221296e-04 0.0000000000000000e+00  -4.6224777040969671e-05 -4.7111231962750246e-04 0.0000000000000000e+00  -4.6224777031741810e-05 -4.7111231963508103e-04 0.0000000000000000e+00  -4.6224777034977340e-05 -4.7111231962901091e-04 0.0000000000000000e+00  -4.6224777031675775e-05 -4.7111231961657370e-04 0.0000000000000000e+00  -4.6224777045195668e-05 -4.7111231963672902e-04 0.0000000000000000e+00  -4.6224777032154504e-05 -4.7111231962071676e-04 0.0000000000000000e+00  -4.6224777039566510e-05 -4.7111231962395711e-04 0.0000000000000000e+00  -4.6224777033623700e-05 -4.7111231961836263e-04 0.0000000000000000e+00  -4.6224777047391211e-05 -4.7111231963346698e-04 0.0000000000000000e+00  -4.6224777033029415e-05 -4.7111231963045149e-04 0.0000000000000000e+00  -4.6224777040854116e-05 -4.7111231963419198e-04 0.0000000000000000e+00  -4.6224777039896663e-05 -4.7111231963550387e-04 0.0000000000000000e+00  -4.6224777037123356e-05 -4.7111231963346557e-04 0.0000000000000000e+00  -4.6224777043181721e-05 -4.7111231963070351e-04 0.0000000000000000e+00  -4.6224777044716945e-05 -4.7111231963242473e-04 0.0000000000000000e+00  -4.6224777043594416e-05 -4.7111231964177056e-04 0.0000000000000000e+00  -4.6224777036033841e-05 -4.7111231961890473e-04 0.0000000000000000e+00  -4.6224777032402123e-05 -4.7111231962282954e-04 0.0000000000000000e+00  -4.6224777047523273e-05 -4.7111231963170916e-04 0.0000000000000000e+00  -4.6224777039434448e-05 -4.7111231963611368e-04 0.0000000000000000e+00  -4.6224777036248438e-05 -4.7111231962851076e-04 0.0000000000000000e+00  -4.6224777039929677e-05 -4.7111231962487869e-04 0.0000000000000000e+00  -4.6224777044221708e-05 -4.7111231962766509e-04 0.0000000000000000e+00  -4.6224777044271236e-05 -4.7111231963137306e-04 0.0000000000000000e+00  -4.6224777040111268e-05 -4.7111231962078040e-04 0.0000000000000000e+00  -4.6224777046681370e-05 -4.7111231962461029e-04 0.0000000000000000e+00  -4.6224777032303074e-05 -4.7111231962911792e-04 0.0000000000000000e+00  -4.6224777043214735e-05 -4.7111231962973591e-04 0.0000000000000000e+00  -4.6224777032517678e-05 -4.7111231963788911e-04 0.0000000000000000e+00  -4.6224777039979205e-05 -4.7111231961708327e-04 0.0000000000000000e+00  -4.6224777054390515e-05 -4.7111231964288728e-04 0.0000000000000000e+00  -4.6224777027862473e-05 -4.7111231962371040e-04 0.0000000000000000e+00  -4.6224777041101734e-05 -4.7111231963046233e-04 0.0000000000000000e+00  -4.6224777031098004e-05 -4.7111231962118156e-04 0.0000000000000000e+00  -4.6224777040012219e-05 -4.7111231962939981e-04 0.0000000000000000e+00  -4.6224777054605119e-05 -6.5291250864037833e-15 0.0000000000000000e+00  -1.8353520612927079e-05 -4.8116705969412221e-04 0.0000000000000000e+00  -1.8353520611386333e-05 -4.8116705970329456e-04 0.0000000000000000e+00  -1.8353520605287540e-05 -4.8116705970695928e-04 0.0000000000000000e+00  -1.8353520600633202e-05 -4.8116705971185976e-04 0.0000000000000000e+00  -1.8353520599541837e-05 -4.8116705969620388e-04 0.0000000000000000e+00  -1.8353520605865321e-05 -4.8116705970433572e-04 0.0000000000000000e+00  -1.8353520602366543e-05 -4.8116705970012837e-04 0.0000000000000000e+00  -1.8353520600633202e-05 -4.8116705970947484e-04 0.0000000000000000e+00  -1.8353520618191304e-05 -4.8116705971790993e-04 0.0000000000000000e+00  -1.8353520607534467e-05 -4.8116705971498194e-04 0.0000000000000000e+00  -1.8353520613569059e-05 -4.8116705971428870e-04 0.0000000000000000e+00  -1.8353520606603598e-05 -4.8116705971264071e-04 0.0000000000000000e+00  -1.8353520602719630e-05 -4.8116705971185944e-04 0.0000000000000000e+00  -1.8353520605672729e-05 -4.8116705969986816e-04 0.0000000000000000e+00  -1.8353520611225840e-05 -4.8116705971901642e-04 0.0000000000000000e+00  -1.8353520600697400e-05 -4.8116705970572285e-04 0.0000000000000000e+00  -1.8353520604902356e-05 -4.8116705971194617e-04 0.0000000000000000e+00  -1.8353520598610968e-05 -4.8116705970461821e-04 0.0000000000000000e+00  -1.8353520596428246e-05 -4.8116705971097039e-04 0.0000000000000000e+00  -1.8353520611964114e-05 -4.8116705972031621e-04 0.0000000000000000e+00  -1.8353520590104759e-05 -4.8116705970006456e-04 0.0000000000000000e+00  -1.8353520606250511e-05 -4.8116705970309908e-04 0.0000000000000000e+00  -1.8353520604260377e-05 -4.8116705969813344e-04 0.0000000000000000e+00  -1.8353520613697455e-05 -4.8116705972350501e-04 0.0000000000000000e+00  -1.8353520596813432e-05 -4.8116705970164625e-04 0.0000000000000000e+00  -1.8353520599766531e-05 -4.8116705968646742e-04 0.0000000000000000e+00  -1.8353520607406071e-05 -4.8116705971144744e-04 0.0000000000000000e+00  -1.8353520601435674e-05 -4.8116705971741055e-04 0.0000000000000000e+00  -1.8353520604388773e-05 -4.8116705971424734e-04 0.0000000000000000e+00  -1.8353520600376409e-05 -4.8116705969178001e-04 0.0000000000000000e+00  -1.8353520610712257e-05 -4.8116705972619259e-04 0.0000000000000000e+00  -1.8353520596107254e-05 -4.8116705971155586e-04 0.0000000000000000e+00  -1.8353520601949257e-05 -4.8116705970973440e-04 0.0000000000000000e+00  -1.8353520609460400e-05 -4.8116705970511570e-04 0.0000000000000000e+00  -1.8353520599413444e-05 -4.8116705969839630e-04 0.0000000000000000e+00  -1.8353520609043114e-05 -4.8116705970596138e-04 0.0000000000000000e+00  -1.8353520597230718e-05 -4.8116705970793462e-04 0.0000000000000000e+00  -1.8353520612798686e-05 -4.8116705971207628e-04 0.0000000000000000e+00  -1.8353520604035686e-05 -4.8116705970923567e-04 0.0000000000000000e+00  -1.8353520600729499e-05 -4.8116705971697687e-04 0.0000000000000000e+00  -1.8353520604581365e-05 -4.8116705969366918e-04 0.0000000000000000e+00  -1.8353520596299849e-05 -4.8116705969986816e-04 0.0000000000000000e+00  -1.8353520601243079e-05 -4.8116705970301235e-04 0.0000000000000000e+00  -1.8353520602976420e-05 -4.8116705970184141e-04 0.0000000000000000e+00  -1.8353520597102321e-05 -4.8116705969620356e-04 0.0000000000000000e+00  -1.8353520618640689e-05 -4.8116705971411458e-04 0.0000000000000000e+00  -1.8353520595465278e-05 -4.8116705971112483e-04 0.0000000000000000e+00  -1.8353520600151718e-05 -4.8116705971196786e-04 0.0000000000000000e+00  -1.8353520595882563e-05 -4.8116705971539393e-04 0.0000000000000000e+00  -1.8353520605672729e-05 -4.8116705970045363e-04 0.0000000000000000e+00  -1.8353520612927082e-05 -7.6045685727517127e-04 0.0000000000000000e+00  1.9398958419922160e-06 1.7997659474758287e-04 0.0000000000000000e+00  1.9398958307051479e-06 1.7997659474133787e-04 0.0000000000000000e+00  1.9398958340852325e-06 1.7997659474545787e-04 0.0000000000000000e+00  1.9398958439236929e-06 1.7997659476419280e-04 0.0000000000000000e+00  1.9398958395175114e-06 1.7997659475439161e-04 0.0000000000000000e+00  1.9398958323348317e-06 1.7997659473752159e-04 0.0000000000000000e+00  1.9398958420525747e-06 1.7997659475777421e-04 0.0000000000000000e+00  1.9398958314898104e-06 1.7997659473968999e-04 0.0000000000000000e+00  1.9398958385517727e-06 1.7997659475100906e-04 0.0000000000000000e+00  1.9398958426561611e-06 1.7997659475391445e-04 0.0000000000000000e+00  1.9398958383103383e-06 1.7997659477325689e-04 0.0000000000000000e+00  1.9398958297394096e-06 1.7997659473721801e-04 0.0000000000000000e+00  1.9398958492352544e-06 1.7997659474697556e-04 0.0000000000000000e+00  1.9398958395175114e-06 1.7997659474090403e-04 0.0000000000000000e+00  1.9398958446479967e-06 1.7997659476176456e-04 0.0000000000000000e+00  1.9398958404832497e-06 1.7997659474185812e-04 0.0000000000000000e+00  1.9398958415697054e-06 1.7997659474441684e-04 0.0000000000000000e+00  1.9398958437426172e-06 1.7997659474762657e-04 0.0000000000000000e+00  1.9398958403625326e-06 1.7997659474524083e-04 0.0000000000000000e+00  1.9398958309465824e-06 1.7997659473934278e-04 0.0000000000000000e+00  1.9398958402418152e-06 1.7997659473210079e-04 0.0000000000000000e+00  1.9398958411471947e-06 1.7997659473617690e-04 0.0000000000000000e+00  1.9398958321537555e-06 1.7997659474897049e-04 0.0000000000000000e+00  1.9398958258160970e-06 1.7997659474268261e-04 0.0000000000000000e+00  1.9398958369220894e-06 1.7997659474029687e-04 0.0000000000000000e+00  1.9398958412679122e-06 1.7997659473765142e-04 0.0000000000000000e+00  1.9398958375860344e-06 1.7997659476579731e-04 0.0000000000000000e+00  1.9398958387932076e-06 1.7997659475894515e-04 0.0000000000000000e+00  1.9398958276872153e-06 1.7997659473869326e-04 0.0000000000000000e+00  1.9398958412075535e-06 1.7997659474745261e-04 0.0000000000000000e+00  1.9398958299808441e-06 1.7997659473890909e-04 0.0000000000000000e+00  1.9398958342059499e-06 1.7997659473973309e-04 0.0000000000000000e+00  1.9398958471227017e-06 1.7997659474012340e-04 0.0000000000000000e+00  1.9398958378274689e-06 1.7997659474758271e-04 0.0000000000000000e+00  1.9398958224963712e-06 1.7997659472698387e-04 0.0000000000000000e+00  1.9398958323348317e-06 1.7997659475894515e-04 0.0000000000000000e+00  1.9398958330591355e-06 1.7997659473847541e-04 0.0000000000000000e+00  1.9398958316708866e-06 1.7997659473669732e-04 0.0000000000000000e+00  1.9398958410868364e-06 1.7997659474393979e-04 0.0000000000000000e+00  1.9398958352320469e-06 1.7997659473413860e-04 0.0000000000000000e+00  1.9398958401814565e-06 1.7997659474563215e-04 0.0000000000000000e+00  1.9398958413282709e-06 1.7997659475959567e-04 0.0000000000000000e+00  1.9398958345681018e-06 1.7997659474814650e-04 0.0000000000000000e+00  1.9398958361374268e-06 1.7997659474706229e-04 0.0000000000000000e+00  1.9398958286529539e-06 1.7997659472212564e-04 0.0000000000000000e+00  1.9398958253332277e-06 1.7997659475343740e-04 0.0000000000000000e+00  1.9398958357752749e-06 1.7997659474580562e-04 0.0000000000000000e+00  1.9398958315501691e-06 1.7997659474632504e-04 0.0000000000000000e+00  1.9398958470019843e-06 1.7997659474710566e-04 0.0000000000000000e+00  1.9398958409661190e-06 1.7997659474350611e-04 0.0000000000000000e+00  1.9398958419922160e-06 -1.2573364951559788e-04 0.0000000000000000e+00  5.3162247405770963e-05 3.7531629253004239e-04 0.0000000000000000e+00  5.3162247405338400e-05 3.7531629254496102e-04 0.0000000000000000e+00  5.3162247412475588e-05 3.7531629254201204e-04 0.0000000000000000e+00  5.3162247423830200e-05 3.7531629255432847e-04 0.0000000000000000e+00  5.3162247417017433e-05 3.7531629255051208e-04 0.0000000000000000e+00  5.3162247426749957e-05 3.7531629255085929e-04 0.0000000000000000e+00  5.3162247415719765e-05 3.7531629254921076e-04 0.0000000000000000e+00  5.3162247409231404e-05 3.7531629255788492e-04 0.0000000000000000e+00  5.3162247419288349e-05 3.7531629255007867e-04 0.0000000000000000e+00  5.3162247411610476e-05 3.7531629255094549e-04 0.0000000000000000e+00  5.3162247419396491e-05 3.7531629255120624e-04 0.0000000000000000e+00  5.3162247414530226e-05 3.7531629255545631e-04 0.0000000000000000e+00  5.3162247409339554e-05 3.7531629254608826e-04 0.0000000000000000e+00  5.3162247414530233e-05 3.7531629255259347e-04 0.0000000000000000e+00  5.3162247424370892e-05 3.7531629255519654e-04 0.0000000000000000e+00  5.3162247407825608e-05 3.7531629253940958e-04 0.0000000000000000e+00  5.3162247416801155e-05 3.7531629255424146e-04 0.0000000000000000e+00  5.3162247411069771e-05 3.7531629253854319e-04 0.0000000000000000e+00  5.3162247414962789e-05 3.7531629254331270e-04 0.0000000000000000e+00  5.3162247405554685e-05 3.7531629253533298e-04 0.0000000000000000e+00  5.3162247428804601e-05 3.7531629256699266e-04 0.0000000000000000e+00  5.3162247413124422e-05 3.7531629255675681e-04 0.0000000000000000e+00  5.3162247408690720e-05 3.7531629254339944e-04 0.0000000000000000e+00  5.3162247407284902e-05 3.7531629254817091e-04 0.0000000000000000e+00  5.3162247418315108e-05 3.7531629255597619e-04 0.0000000000000000e+00  5.3162247420045332e-05 3.7531629255207306e-04 0.0000000000000000e+00  5.3162247421883698e-05 3.7531629256473654e-04 0.0000000000000000e+00  5.3162247405230265e-05 3.7531629255363431e-04 0.0000000000000000e+00  5.3162247406852353e-05 3.7531629254652406e-04 0.0000000000000000e+00  5.3162247418639521e-05 3.7531629254816993e-04 0.0000000000000000e+00  5.3162247407176767e-05 3.7531629255389452e-04 0.0000000000000000e+00  5.3162247412367453e-05 3.7531629254348618e-04 0.0000000000000000e+00  5.3162247419288355e-05 3.7531629254912403e-04 0.0000000000000000e+00  5.3162247407825608e-05 3.7531629253203700e-04 0.0000000000000000e+00  5.3162247417125575e-05 3.7531629254548322e-04 0.0000000000000000e+00  5.3162247417233711e-05 3.7531629255354757e-04 0.0000000000000000e+00  5.3162247397444243e-05 3.7531629253784833e-04 0.0000000000000000e+00  5.3162247412800009e-05 3.7531629254452701e-04 0.0000000000000000e+00  5.3162247416044179e-05 3.7531629255302716e-04 0.0000000000000000e+00  5.3162247417666267e-05 3.7531629255675681e-04 0.0000000000000000e+00  5.3162247422640675e-05 3.7531629255068739e-04 0.0000000000000000e+00  5.3162247423181366e-05 3.7531629255189959e-04 0.0000000000000000e+00  5.3162247410096530e-05 3.7531629255068528e-04 0.0000000000000000e+00  5.3162247416909297e-05 3.7531629254027694e-04 0.0000000000000000e+00  5.3162247415070931e-05 3.7531629255042507e-04 0.0000000000000000e+00  5.3162247413773256e-05 3.7531629254756278e-04 0.0000000000000000e+00  5.3162247427074377e-05 3.7531629254652406e-04 0.0000000000000000e+00  5.3162247420261610e-05 3.7531629256291508e-04 0.0000000000000000e+00  5.3162247421018586e-05 3.7531629253906263e-04 0.0000000000000000e+00  5.3162247418639521e-05 3.7531629256482328e-04 0.0000000000000000e+00  5.3162247405770963e-05 4.8112137269271869e-04 0.0000000000000000e+00  -1.3383741398495108e-05 1.1063365803268274e-04 0.0000000000000000e+00  -1.3383741376389997e-05 1.1063365803953490e-04 0.0000000000000000e+00  -1.3383741379661557e-05 1.1063365802877967e-04 0.0000000000000000e+00  -1.3383741381518384e-05 1.1063365802392239e-04 0.0000000000000000e+00  -1.3383741383286792e-05 1.1063365804352476e-04 0.0000000000000000e+00  -1.3383741391421473e-05 1.1063365804612693e-04 0.0000000000000000e+00  -1.3383741398671949e-05 1.1063365803433066e-04 0.0000000000000000e+00  -1.3383741397168801e-05 1.1063365803979519e-04 0.0000000000000000e+00  -1.3383741406187686e-05 1.1063365803016747e-04 0.0000000000000000e+00  -1.3383741395577233e-05 1.1063365801628954e-04 0.0000000000000000e+00  -1.3383741397610903e-05 1.1063365804395853e-04 0.0000000000000000e+00  -1.3383741405480324e-05 1.1063365802496330e-04 0.0000000000000000e+00  -1.3383741411846595e-05 1.1063365804100935e-04 0.0000000000000000e+00  -1.3383741397522483e-05 1.1063365803302962e-04 0.0000000000000000e+00  -1.3383741388061496e-05 1.1063365803754018e-04 0.0000000000000000e+00  -1.3383741392394099e-05 1.1063365803684601e-04 0.0000000000000000e+00  -1.3383741384878360e-05 1.1063365804161650e-04 0.0000000000000000e+00  -1.3383741396903541e-05 1.1063365804482602e-04 0.0000000000000000e+00  -1.3383741389210962e-05 1.1063365802478968e-04 0.0000000000000000e+00  -1.3383741379219452e-05 1.1063365805722901e-04 0.0000000000000000e+00  -1.3383741383198372e-05 1.1063365803884123e-04 0.0000000000000000e+00  -1.3383741403711914e-05 1.1063365803077448e-04 0.0000000000000000e+00  -1.3383741388592019e-05 1.1063365804248386e-04 0.0000000000000000e+00  -1.3383741394162507e-05 1.1063365805402006e-04 0.0000000000000000e+00  -1.3383741393808825e-05 1.1063365803745316e-04 0.0000000000000000e+00  -1.3383741396284597e-05 1.1063365802721830e-04 0.0000000000000000e+00  -1.3383741389564644e-05 1.1063365802695809e-04 0.0000000000000000e+00  -1.3383741373383703e-05 1.1063365802296822e-04 0.0000000000000000e+00  -1.3383741373472123e-05 1.1063365804161711e-04 0.0000000000000000e+00  -1.3383741393455143e-05 1.1063365802825913e-04 0.0000000000000000e+00  -1.3383741395135131e-05 1.1063365802348864e-04 0.0000000000000000e+00  -1.3383741384082576e-05 1.1063365804664720e-04 0.0000000000000000e+00  -1.3383741389564644e-05 1.1063365804638699e-04 0.0000000000000000e+00  -1.3383741388149916e-05 1.1063365803086121e-04 0.0000000000000000e+00  -1.3383741375771055e-05 1.1063365805063767e-04 0.0000000000000000e+00  -1.3383741380457338e-05 1.1063365803294288e-04 0.0000000000000000e+00  -1.3383741396903541e-05 1.1063365804170324e-04 0.0000000000000000e+00  -1.3383741387796234e-05 1.1063365802305496e-04 0.0000000000000000e+00  -1.3383741386912030e-05 1.1063365803970830e-04 0.0000000000000000e+00  -1.3383741388061496e-05 1.1063365803224899e-04 0.0000000000000000e+00  -1.3383741389829905e-05 1.1063365802869342e-04 0.0000000000000000e+00  -1.3383741380015236e-05 1.1063365802227433e-04 0.0000000000000000e+00  -1.3383741387354132e-05 1.1063365806139235e-04 0.0000000000000000e+00  -1.3383741390537269e-05 1.1063365803216226e-04 0.0000000000000000e+00  -1.3383741383905736e-05 1.1063365803493781e-04 0.0000000000000000e+00  -1.3383741377716305e-05 1.1063365804768803e-04 0.0000000000000000e+00  -1.3383741390006746e-05 1.1063365803467822e-04 0.0000000000000000e+00  -1.3383741394693029e-05 1.1063365803415719e-04 0.0000000000000000e+00  -1.3383741385143622e-05 1.1063365802938670e-04 0.0000000000000000e+00  -1.3383741371438453e-05 1.1063365805575450e-04 0.0000000000000000e+00  -1.3383741398495108e-05 1.4495103930946354e-05 0.0000000000000000e+00  2.0300171577055055e-06 -5.9912860892602504e-05 0.0000000000000000e+00  2.0300171763090718e-06 -5.9912860835183157e-05 0.0000000000000000e+00  2.0300171565558472e-06 -5.9912860859989716e-05 0.0000000000000000e+00  2.0300171556152171e-06 -5.9912860847152736e-05 0.0000000000000000e+00  2.0300171404606271e-06 -5.9912860846458846e-05 0.0000000000000000e+00  2.0300171278143824e-06 -5.9912860872826697e-05 0.0000000000000000e+00  2.0300171544655583e-06 -5.9912860886357432e-05 0.0000000000000000e+00  2.0300171613635101e-06 -5.9912860857040714e-05 0.0000000000000000e+00  2.0300171644989427e-06 -5.9912860897112826e-05 0.0000000000000000e+00  2.0300171636628272e-06 -5.9912860878898121e-05 0.0000000000000000e+00  2.0300171758910141e-06 -5.9912860843336398e-05 0.0000000000000000e+00  2.0300171656486015e-06 -5.9912860874734893e-05 0.0000000000000000e+00  2.0300171820573644e-06 -5.9912860851836435e-05 0.0000000000000000e+00  2.0300171763090714e-06 -5.9912860827897251e-05 0.0000000000000000e+00  2.0300171651260291e-06 -5.9912860859642873e-05 0.0000000000000000e+00  2.0300171615725387e-06 -5.9912860847152681e-05 0.0000000000000000e+00  2.0300171558242458e-06 -5.9912860853050741e-05 0.0000000000000000e+00  2.0300171513301261e-06 -5.9912860870051214e-05 0.0000000000000000e+00  2.0300171515391548e-06 -5.9912860858601856e-05 0.0000000000000000e+00  2.0300171631402553e-06 -5.9912860861203941e-05 0.0000000000000000e+00  2.0300171471495493e-06 -5.9912860883235113e-05 0.0000000000000000e+00  2.0300171562423035e-06 -5.9912860840213787e-05 0.0000000000000000e+00  2.0300171536294432e-06 -5.9912860845591430e-05 0.0000000000000000e+00  2.0300171493443522e-06 -5.9912860859122456e-05 0.0000000000000000e+00  2.0300171470450347e-06 -5.9912860861550886e-05 0.0000000000000000e+00  2.030