<?xml version="1.0"?>
<VTKFile type="UnstructuredGrid"  version="0.1"  >
<UnstructuredGrid>
<Piece  NumberOfPoints="2601" NumberOfCells="5000">
<Points>
<DataArray  type="Float64"  NumberOfComponents="3"  format="ascii">0 0 0  0.02 0 0  0.04 0 0  0.06 0 0  0.08 0 0  0.1 0 0  0.12 0 0  0.14 0 0  0.16 0 0  0.18 0 0  0.2 0 0  0.22 0 0  0.24 0 0  0.26 0 0  0.28 0 0  0.3 0 0  0.32 0 0  0.34 0 0  0.36 0 0  0.38 0 0  0.4 0 0  0.42 0 0  0.44 0 0  0.46 0 0  0.48 0 0  0.5 0 0  0.52 0 0  0.54 0 0  0.5600000000000001 0 0  0.58 0 0  0.6 0 0  0.62 0 0  0.64 0 0  0.66 0 0  0.68 0 0  0.7 0 0  0.72 0 0  0.74 0 0  0.76 0 0  0.78 0 0  0.8 0 0  0.82 0 0  0.84 0 0  0.86 0 0  0.88 0 0  0.9 0 0  0.92 0 0  0.9399999999999999 0 0  0.96 0 0  0.98 0 0  1 0 0  0 0.01313563088723984 0  0.02 0.01313563088723984 0  0.04 0.01313563088723984 0  0.06 0.01313563088723984 0  0.08 0.01313563088723984 0  0.1 0.01313563088723984 0  0.12 0.01313563088723984 0  0.14 0.01313563088723984 0  0.16 0.01313563088723984 0  0.18 0.01313563088723984 0  0.2 0.01313563088723984 0  0.22 0.01313563088723984 0  0.24 0.01313563088723984 0  0.26 0.01313563088723984 0  0.28 0.01313563088723984 0  0.3 0.01313563088723984 0  0.32 0.01313563088723984 0  0.34 0.01313563088723984 0  0.36 0.01313563088723984 0  0.38 0.01313563088723984 0  0.4 0.01313563088723984 0  0.42 0.01313563088723984 0  0.44 0.01313563088723984 0  0.46 0.01313563088723984 0  0.48 0.01313563088723984 0  0.5 0.01313563088723984 0  0.52 0.01313563088723984 0  0.54 0.01313563088723984 0  0.5600000000000001 0.01313563088723984 0  0.58 0.01313563088723984 0  0.6 0.01313563088723984 0  0.62 0.01313563088723984 0  0.64 0.01313563088723984 0  0.66 0.01313563088723984 0  0.68 0.01313563088723984 0  0.7 0.01313563088723984 0  0.72 0.01313563088723984 0  0.74 0.01313563088723984 0  0.76 0.01313563088723984 0  0.78 0.01313563088723984 0  0.8 0.01313563088723984 0  0.82 0.01313563088723984 0  0.84 0.01313563088723984 0  0.86 0.01313563088723984 0  0.88 0.01313563088723984 0  0.9 0.01313563088723984 0  0.92 0.01313563088723984 0  0.9399999999999999 0.01313563088723984 0  0.96 0.01313563088723984 0  0.98 0.01313563088723984 0  1 0.01313563088723984 0  0 0.02664639863733726 0  0.02 0.02664639863733726 0  0.04 0.02664639863733726 0  0.06 0.02664639863733726 0  0.08 0.02664639863733726 0  0.1 0.02664639863733726 0  0.12 0.02664639863733726 0  0.14 0.02664639863733726 0  0.16 0.02664639863733726 0  0.18 0.02664639863733726 0  0.2 0.02664639863733726 0  0.22 0.02664639863733726 0  0.24 0.02664639863733726 0  0.26 0.02664639863733726 0  0.28 0.02664639863733726 0  0.3 0.02664639863733726 0  0.32 0.02664639863733726 0  0.34 0.02664639863733726 0  0.36 0.02664639863733726 0  0.38 0.02664639863733726 0  0.4 0.02664639863733726 0  0.42 0.02664639863733726 0  0.44 0.02664639863733726 0  0.46 0.02664639863733726 0  0.48 0.02664639863733726 0  0.5 0.02664639863733726 0  0.52 0.02664639863733726 0  0.54 0.02664639863733726 0  0.5600000000000001 0.02664639863733726 0  0.58 0.02664639863733726 0  0.6 0.02664639863733726 0  0.62 0.02664639863733726 0  0.64 0.02664639863733726 0  0.66 0.02664639863733726 0  0.68 0.02664639863733726 0  0.7 0.02664639863733726 0  0.72 0.02664639863733726 0  0.74 0.02664639863733726 0  0.76 0.02664639863733726 0  0.78 0.02664639863733726 0  0.8 0.02664639863733726 0  0.82 0.02664639863733726 0  0.84 0.02664639863733726 0  0.86 0.02664639863733726 0  0.88 0.02664639863733726 0  0.9 0.02664639863733726 0  0.92 0.02664639863733726 0  0.9399999999999999 0.02664639863733726 0  0.96 0.02664639863733726 0  0.98 0.02664639863733726 0  1 0.02664639863733726 0  0 0.04101652939099896 0  0.02 0.04101652939099896 0  0.04 0.04101652939099896 0  0.06 0.04101652939099896 0  0.08 0.04101652939099896 0  0.1 0.04101652939099896 0  0.12 0.04101652939099896 0  0.14 0.04101652939099896 0  0.16 0.04101652939099896 0  0.18 0.04101652939099896 0  0.2 0.04101652939099896 0  0.22 0.04101652939099896 0  0.24 0.04101652939099896 0  0.26 0.04101652939099896 0  0.28 0.04101652939099896 0  0.3 0.04101652939099896 0  0.32 0.04101652939099896 0  0.34 0.04101652939099896 0  0.36 0.04101652939099896 0  0.38 0.04101652939099896 0  0.4 0.04101652939099896 0  0.42 0.04101652939099896 0  0.44 0.04101652939099896 0  0.46 0.04101652939099896 0  0.48 0.04101652939099896 0  0.5 0.04101652939099896 0  0.52 0.04101652939099896 0  0.54 0.04101652939099896 0  0.5600000000000001 0.04101652939099896 0  0.58 0.04101652939099896 0  0.6 0.04101652939099896 0  0.62 0.04101652939099896 0  0.64 0.04101652939099896 0  0.66 0.04101652939099896 0  0.68 0.04101652939099896 0  0.7 0.04101652939099896 0  0.72 0.04101652939099896 0  0.74 0.04101652939099896 0  0.76 0.04101652939099896 0  0.78 0.04101652939099896 0  0.8 0.04101652939099896 0  0.82 0.04101652939099896 0  0.84 0.04101652939099896 0  0.86 0.04101652939099896 0  0.88 0.04101652939099896 0  0.9 0.04101652939099896 0  0.92 0.04101652939099896 0  0.9399999999999999 0.04101652939099896 0  0.96 0.04101652939099896 0  0.98 0.04101652939099896 0  1 0.04101652939099896 0  0 0.05705811164099547 0  0.02 0.05705811164099547 0  0.04 0.05705811164099547 0  0.06 0.05705811164099547 0  0.08 0.05705811164099547 0  0.1 0.05705811164099547 0  0.12 0.05705811164099547 0  0.14 0.05705811164099547 0  0.16 0.05705811164099547 0  0.18 0.05705811164099547 0  0.2 0.05705811164099547 0  0.22 0.05705811164099547 0  0.24 0.05705811164099547 0  0.26 0.05705811164099547 0  0.28 0.05705811164099547 0  0.3 0.05705811164099547 0  0.32 0.05705811164099547 0  0.34 0.05705811164099547 0  0.36 0.05705811164099547 0  0.38 0.05705811164099547 0  0.4 0.05705811164099547 0  0.42 0.05705811164099547 0  0.44 0.05705811164099547 0  0.46 0.05705811164099547 0  0.48 0.05705811164099547 0  0.5 0.05705811164099547 0  0.52 0.05705811164099547 0  0.54 0.05705811164099547 0  0.5600000000000001 0.05705811164099547 0  0.58 0.05705811164099547 0  0.6 0.05705811164099547 0  0.62 0.05705811164099547 0  0.64 0.05705811164099547 0  0.66 0.05705811164099547 0  0.68 0.05705811164099547 0  0.7 0.05705811164099547 0  0.72 0.05705811164099547 0  0.74 0.05705811164099547 0  0.76 0.05705811164099547 0  0.78 0.05705811164099547 0  0.8 0.05705811164099547 0  0.82 0.05705811164099547 0  0.84 0.05705811164099547 0  0.86 0.05705811164099547 0  0.88 0.05705811164099547 0  0.9 0.05705811164099547 0  0.92 0.05705811164099547 0  0.9399999999999999 0.05705811164099547 0  0.96 0.05705811164099547 0  0.98 0.05705811164099547 0  1 0.05705811164099547 0  0 0.07667714377545 0  0.02 0.07667714377545 0  0.04 0.07667714377545 0  0.06 0.07667714377545 0  0.08 0.07667714377545 0  0.1 0.07667714377545 0  0.12 0.07667714377545 0  0.14 0.07667714377545 0  0.16 0.07667714377545 0  0.18 0.07667714377545 0  0.2 0.07667714377545 0  0.22 0.07667714377545 0  0.24 0.07667714377545 0  0.26 0.07667714377545 0  0.28 0.07667714377545 0  0.3 0.07667714377545 0  0.32 0.07667714377545 0  0.34 0.07667714377545 0  0.36 0.07667714377545 0  0.38 0.07667714377545 0  0.4 0.07667714377545 0  0.42 0.07667714377545 0  0.44 0.07667714377545 0  0.46 0.07667714377545 0  0.48 0.07667714377545 0  0.5 0.07667714377545 0  0.52 0.07667714377545 0  0.54 0.07667714377545 0  0.5600000000000001 0.07667714377545 0  0.58 0.07667714377545 0  0.6 0.07667714377545 0  0.62 0.07667714377545 0  0.64 0.07667714377545 0  0.66 0.07667714377545 0  0.68 0.07667714377545 0  0.7 0.07667714377545 0  0.72 0.07667714377545 0  0.74 0.07667714377545 0  0.76 0.07667714377545 0  0.78 0.07667714377545 0  0.8 0.07667714377545 0  0.82 0.07667714377545 0  0.84 0.07667714377545 0  0.86 0.07667714377545 0  0.88 0.07667714377545 0  0.9 0.07667714377545 0  0.92 0.07667714377545 0  0.9399999999999999 0.07667714377545 0  0.96 0.07667714377545 0  0.98 0.07667714377545 0  1 0.07667714377545 0  0 0.1098730133816912 0  0.02 0.1098730133816912 0  0.04 0.1098730133816912 0  0.06 0.1098730133816912 0  0.08 0.1098730133816912 0  0.1 0.1098730133816912 0  0.12 0.1098730133816912 0  0.14 0.1098730133816912 0  0.16 0.1098730133816912 0  0.18 0.1098730133816912 0  0.2 0.1098730133816912 0  0.22 0.1098730133816912 0  0.24 0.1098730133816912 0  0.26 0.1098730133816912 0  0.28 0.1098730133816912 0  0.3 0.1098730133816912 0  0.32 0.1098730133816912 0  0.34 0.1098730133816912 0  0.36 0.1098730133816912 0  0.38 0.1098730133816912 0  0.4 0.1098730133816912 0  0.42 0.1098730133816912 0  0.44 0.1098730133816912 0  0.46 0.1098730133816912 0  0.48 0.1098730133816912 0  0.5 0.1098730133816912 0  0.52 0.1098730133816912 0  0.54 0.1098730133816912 0  0.5600000000000001 0.1098730133816912 0  0.58 0.1098730133816912 0  0.6 0.1098730133816912 0  0.62 0.1098730133816912 0  0.64 0.1098730133816912 0  0.66 0.1098730133816912 0  0.68 0.1098730133816912 0  0.7 0.1098730133816912 0  0.72 0.1098730133816912 0  0.74 0.1098730133816912 0  0.76 0.1098730133816912 0  0.78 0.1098730133816912 0  0.8 0.1098730133816912 0  0.82 0.1098730133816912 0  0.84 0.1098730133816912 0  0.86 0.1098730133816912 0  0.88 0.1098730133816912 0  0.9 0.1098730133816912 0  0.92 0.1098730133816912 0  0.9399999999999999 0.1098730133816912 0  0.96 0.1098730133816912 0  0.98 0.1098730133816912 0  1 0.1098730133816912 0  0 0.1603283563168221 0  0.02 0.1603283563168221 0  0.04 0.1603283563168221 0  0.06 0.1603283563168221 0  0.08 0.1603283563168221 0  0.1 0.1603283563168221 0  0.12 0.1603283563168221 0  0.14 0.1603283563168221 0  0.16 0.1603283563168221 0  0.18 0.1603283563168221 0  0.2 0.1603283563168221 0  0.22 0.1603283563168221 0  0.24 0.1603283563168221 0  0.26 0.1603283563168221 0  0.28 0.1603283563168221 0  0.3 0.1603283563168221 0  0.32 0.1603283563168221 0  0.34 0.1603283563168221 0  0.36 0.1603283563168221 0  0.38 0.1603283563168221 0  0.4 0.1603283563168221 0  0.42 0.1603283563168221 0  0.44 0.1603283563168221 0  0.46 0.1603283563168221 0  0.48 0.1603283563168221 0  0.5 0.1603283563168221 0  0.52 0.1603283563168221 0  0.54 0.1603283563168221 0  0.5600000000000001 0.1603283563168221 0  0.58 0.1603283563168221 0 
[...]
<PointData  Vectors="u_paraw"> 
<DataArray  type="Float64"  Name="u_paraw"  NumberOfComponents="3" format="ascii">-1.3663357975309187e-05 9.4551207338296282e-05 0.0000000000000000e+00  -1.3663357970274306e-05 9.4551207345842329e-05 0.0000000000000000e+00  -1.3663357985131328e-05 9.4551207344129289e-05 0.0000000000000000e+00  -1.3663357992378257e-05 9.4551207333308938e-05 0.0000000000000000e+00  -1.3663357982044371e-05 9.4551207339716573e-05 0.0000000000000000e+00  -1.3663357992295716e-05 9.4551207348639611e-05 0.0000000000000000e+00  -1.3663357990446841e-05 9.4551207331725922e-05 0.0000000000000000e+00  -1.3663357981664688e-05 9.4551207334826875e-05 0.0000000000000000e+00  -1.3663357993187137e-05 9.4551207342069346e-05 0.0000000000000000e+00  -1.3663357996241080e-05 9.4551207317967396e-05 0.0000000000000000e+00  -1.3663357981235486e-05 9.4551207330056386e-05 0.0000000000000000e+00  -1.3663357993154121e-05 9.4551207334881085e-05 0.0000000000000000e+00  -1.3663357988482412e-05 9.4551207342123420e-05 0.0000000000000000e+00  -1.3663357989770021e-05 9.4551207337081880e-05 0.0000000000000000e+00  -1.3663357974104114e-05 9.4551207335217337e-05 0.0000000000000000e+00  -1.3663357984619586e-05 9.4551207339922490e-05 0.0000000000000000e+00  -1.3663357976497745e-05 9.4551207349268313e-05 0.0000000000000000e+00  -1.3663357984685618e-05 9.4551207345582310e-05 0.0000000000000000e+00  -1.3663357977290120e-05 9.4551207347262539e-05 0.0000000000000000e+00  -1.3663357983298962e-05 9.4551207328906996e-05 0.0000000000000000e+00  -1.3663357988531935e-05 9.4551207329156647e-05 0.0000000000000000e+00  -1.3663357988234796e-05 9.4551207340681431e-05 0.0000000000000000e+00  -1.3663357977389167e-05 9.4551207354320695e-05 0.0000000000000000e+00  -1.3663357981598657e-05 9.4551207339890249e-05 0.0000000000000000e+00  -1.3663357980525651e-05 9.4551207346980646e-05 0.0000000000000000e+00  -1.3663357991602387e-05 9.4551207346471071e-05 0.0000000000000000e+00  -1.3663357979188518e-05 9.4551207345170028e-05 0.0000000000000000e+00  -1.3663357984768156e-05 9.4551207351707768e-05 0.0000000000000000e+00  -1.3663357991883019e-05 9.4551207337277565e-05 0.0000000000000000e+00  -1.3663357986204336e-05 9.4551207349821256e-05 0.0000000000000000e+00  -1.3663357984074829e-05 9.4551207327508375e-05 0.0000000000000000e+00  -1.3663357976415207e-05 9.4551207346698754e-05 0.0000000000000000e+00  -1.3663357990215731e-05 9.4551207350591039e-05 0.0000000000000000e+00  -1.3663357984900219e-05 9.4551207331877710e-05 0.0000000000000000e+00  -1.3663357991585880e-05 9.4551207326294597e-05 0.0000000000000000e+00  -1.3663357988102733e-05 9.4551207336767462e-05 0.0000000000000000e+00  -1.3663357980360573e-05 9.4551207344996556e-05 0.0000000000000000e+00  -1.3663357997842338e-05 9.4551207351816188e-05 0.0000000000000000e+00  -1.3663357991982066e-05 9.4551207329850252e-05 0.0000000000000000e+00  -1.3663357981796751e-05 9.4551207348216637e-05 0.0000000000000000e+00  -1.3663357999575657e-05 9.4551207326240387e-05 0.0000000000000000e+00  -1.3663357978775823e-05 9.4551207341288585e-05 0.0000000000000000e+00  -1.3663357989274786e-05 9.4551207321859682e-05 0.0000000000000000e+00  -1.3663357988399872e-05 9.4551207341212691e-05 0.0000000000000000e+00  -1.3663357985610054e-05 9.4551207338946708e-05 0.0000000000000000e+00  -1.3663357984404984e-05 9.4551207336680725e-05 0.0000000000000000e+00  -1.3663357987855115e-05 9.4551207337678720e-05 0.0000000000000000e+00  -1.3663357986468459e-05 9.4551207337266195e-05 0.0000000000000000e+00  -1.3663357988647491e-05 9.4551207339196075e-05 0.0000000000000000e+00  -1.3663357990413825e-05 9.4551207328429947e-05 0.0000000000000000e+00  -1.3663357975309183e-05 -2.1360479477038779e-14 0.0000000000000000e+00  2.3204737151832481e-05 4.6011330460651775e-04 0.0000000000000000e+00  2.3204737156839910e-05 4.6011330461152676e-04 0.0000000000000000e+00  2.3204737139410205e-05 4.6011330458845505e-04 0.0000000000000000e+00  2.3204737137484272e-05 4.6011330460356872e-04 0.0000000000000000e+00  2.3204737138704033e-05 4.6011330459222796e-04 0.0000000000000000e+00  2.3204737136136121e-05 4.6011330459864677e-04 0.0000000000000000e+00  2.3204737126538546e-05 4.6011330458652473e-04 0.0000000000000000e+00  2.3204737143069482e-05 4.6011330459864677e-04 0.0000000000000000e+00  2.3204737139378109e-05 4.6011330459519900e-04 0.0000000000000000e+00  2.3204737136585506e-05 4.6011330460324313e-04 0.0000000000000000e+00  2.3204737141849724e-05 4.6011330459764930e-04 0.0000000000000000e+00  2.3204737135911427e-05 4.6011330459253187e-04 0.0000000000000000e+00  2.3204737145380604e-05 4.6011330459255290e-04 0.0000000000000000e+00  2.3204737142138616e-05 4.6011330459701981e-04 0.0000000000000000e+00  2.3204737136392911e-05 4.6011330460727761e-04 0.0000000000000000e+00  2.3204737143518867e-05 4.6011330459773538e-04 0.0000000000000000e+00  2.3204737145059616e-05 4.6011330458934366e-04 0.0000000000000000e+00  2.3204737148943584e-05 4.6011330459819200e-04 0.0000000000000000e+00  2.3204737154304100e-05 4.6011330461536451e-04 0.0000000000000000e+00  2.3204737132701538e-05 4.6011330458860640e-04 0.0000000000000000e+00  2.3204737147595430e-05 4.6011330460354796e-04 0.0000000000000000e+00  2.3204737142202811e-05 4.6011330458808599e-04 0.0000000000000000e+00  2.3204737150420132e-05 4.6011330460319976e-04 0.0000000000000000e+00  2.3204737140983053e-05 4.6011330460654035e-04 0.0000000000000000e+00  2.3204737145573199e-05 4.6011330460345997e-04 0.0000000000000000e+00  2.3204737137869462e-05 4.6011330459138196e-04 0.0000000000000000e+00  2.3204737133439812e-05 4.6011330458988576e-04 0.0000000000000000e+00  2.3204737145380604e-05 4.6011330459920990e-04 0.0000000000000000e+00  2.3204737137773164e-05 4.6011330460044838e-04 0.0000000000000000e+00  2.3204737147210243e-05 4.6011330459819075e-04 0.0000000000000000e+00  2.3204737146343572e-05 4.6011330460398039e-04 0.0000000000000000e+00  2.3204737135108954e-05 4.6011330458934366e-04 0.0000000000000000e+00  2.3204737141336141e-05 4.6011330459237943e-04 0.0000000000000000e+00  2.3204737140244779e-05 4.6011330460304798e-04 0.0000000000000000e+00  2.3204737142876890e-05 4.6011330460135911e-04 0.0000000000000000e+00  2.3204737139538605e-05 4.6011330459845096e-04 0.0000000000000000e+00  2.3204737140822561e-05 4.6011330458067004e-04 0.0000000000000000e+00  2.3204737134338581e-05 4.6011330459649939e-04 0.0000000000000000e+00  2.3204737139827494e-05 4.6011330459552361e-04 0.0000000000000000e+00  2.3204737140918855e-05 4.6011330458767399e-04 0.0000000000000000e+00  2.3204737137805264e-05 4.6011330460459004e-04 0.0000000000000000e+00  2.3204737147306540e-05 4.6011330460415386e-04 0.0000000000000000e+00  2.3204737135269450e-05 4.6011330459218427e-04 0.0000000000000000e+00  2.3204737152313969e-05 4.6011330460113978e-04 0.0000000000000000e+00  2.3204737141689231e-05 4.6011330460276608e-04 0.0000000000000000e+00  2.3204737135012657e-05 4.6011330459576214e-04 0.0000000000000000e+00  2.3204737140629966e-05 4.6011330459854019e-04 0.0000000000000000e+00  2.3204737143005287e-05 4.6011330459565372e-04 0.0000000000000000e+00  2.3204737144321339e-05 4.6011330460781847e-04 0.0000000000000000e+00  2.3204737133600307e-05 4.6011330460272271e-04 0.0000000000000000e+00  2.3204737151832485e-05 2.3831263834927621e-04 0.0000000000000000e+00  -1.1105155978177392e-05 3.5406992061354919e-04 0.0000000000000000e+00  -1.1105155980169227e-05 3.5406992062009777e-04 0.0000000000000000e+00  -1.1105155992422033e-05 3.5406992061272525e-04 0.0000000000000000e+00  -1.1105155982040345e-05 3.5406992061103374e-04 0.0000000000000000e+00  -1.1105155995319248e-05 3.5406992061532718e-04 0.0000000000000000e+00  -1.1105155990973425e-05 3.5406992060860545e-04 0.0000000000000000e+00  -1.1105155986929395e-05 3.5406992062976853e-04 0.0000000000000000e+00  -1.1105155972081167e-05 3.5406992064160856e-04 0.0000000000000000e+00  -1.1105155999725431e-05 3.5406992060075583e-04 0.0000000000000000e+00  -1.1105155973650492e-05 3.5406992063406197e-04 0.0000000000000000e+00  -1.1105155999423638e-05 3.5406992061792959e-04 0.0000000000000000e+00  -1.1105155995500325e-05 3.5406992060596000e-04 0.0000000000000000e+00  -1.1105155974676589e-05 3.5406992060882175e-04 0.0000000000000000e+00  -1.1105155980289944e-05 3.5406992063024558e-04 0.0000000000000000e+00  -1.1105155982221420e-05 3.5406992060006237e-04 0.0000000000000000e+00  -1.1105155979022412e-05 3.5406992060574261e-04 0.0000000000000000e+00  -1.1105155982523215e-05 3.5406992061836273e-04 0.0000000000000000e+00  -1.1105155987955493e-05 3.5406992061077429e-04 0.0000000000000000e+00  -1.1105155976849500e-05 3.5406992061914335e-04 0.0000000000000000e+00  -1.1105155987291548e-05 3.5406992061359224e-04 0.0000000000000000e+00  -1.1105155984213257e-05 3.5406992061172838e-04 0.0000000000000000e+00  -1.1105155996466063e-05 3.5406992060509209e-04 0.0000000000000000e+00  -1.1105155979988150e-05 3.5406992061025289e-04 0.0000000000000000e+00  -1.1105155981497117e-05 3.5406992060782526e-04 0.0000000000000000e+00  -1.1105155980350302e-05 3.5406992062018419e-04 0.0000000000000000e+00  -1.1105155990430198e-05 3.5406992062087808e-04 0.0000000000000000e+00  -1.1105155993085978e-05 3.5406992061528359e-04 0.0000000000000000e+00  -1.1105155977392729e-05 3.5406992061983724e-04 0.0000000000000000e+00  -1.1105155996948933e-05 3.5406992060760939e-04 0.0000000000000000e+00  -1.1105155995379608e-05 3.5406992059611490e-04 0.0000000000000000e+00  -1.1105155981436758e-05 3.5406992061701832e-04 0.0000000000000000e+00  -1.1105155996948933e-05 3.5406992060886512e-04 0.0000000000000000e+00  -1.1105155985178995e-05 3.5406992060890848e-04 0.0000000000000000e+00  -1.1105155995560683e-05 3.5406992060209969e-04 0.0000000000000000e+00  -1.1105155998880408e-05 3.5406992061415797e-04 0.0000000000000000e+00  -1.1105155995138173e-05 3.5406992061589075e-04 0.0000000000000000e+00  -1.1105155993146338e-05 3.5406992060986258e-04 0.0000000000000000e+00  -1.1105155980350302e-05 3.5406992060656661e-04 0.0000000000000000e+00  -1.1105155986627602e-05 3.5406992061554380e-04 0.0000000000000000e+00  -1.1105155983971822e-05 3.5406992061242130e-04 0.0000000000000000e+00  -1.1105155987110472e-05 3.5406992061884173e-04 0.0000000000000000e+00  -1.1105155987110472e-05 3.5406992060353084e-04 0.0000000000000000e+00  -1.1105155994051718e-05 3.5406992063393187e-04 0.0000000000000000e+00  -1.1105155984333974e-05 3.5406992060500536e-04 0.0000000000000000e+00  -1.1105155995621043e-05 3.5406992060999269e-04 0.0000000000000000e+00  -1.1105155996828215e-05 3.5406992060465841e-04 0.0000000000000000e+00  -1.1105155986024015e-05 3.5406992062235454e-04 0.0000000000000000e+00  -1.1105156002743363e-05 3.5406992061233456e-04 0.0000000000000000e+00  -1.1105155984152897e-05 3.5406992061250803e-04 0.0000000000000000e+00  -1.1105155980712455e-05 3.5406992063302114e-04 0.0000000000000000e+00  -1.1105155978177392e-05 5.8021542872960198e-04 0.0000000000000000e+00  5.8194179594489032e-05 6.9531909515502255e-05 0.0000000000000000e+00  5.8194179605735509e-05 6.9531909504313288e-05 0.0000000000000000e+00  5.8194179591785554e-05 6.9531909509777681e-05 0.0000000000000000e+00  5.8194179588433241e-05 6.9531909491129376e-05 0.0000000000000000e+00  5.8194179607249455e-05 6.9531909504313275e-05 0.0000000000000000e+00  5.8194179618171504e-05 6.9531909509257291e-05 0.0000000000000000e+00  5.8194179600761108e-05 6.9531909526864639e-05 0.0000000000000000e+00  5.8194179605519224e-05 6.9531909508129721e-05 0.0000000000000000e+00  5.8194179594597168e-05 6.9531909521573828e-05 0.0000000000000000e+00  5.8194179598814599e-05 6.9531909492343642e-05 0.0000000000000000e+00  5.8194179598273901e-05 6.9531909509344027e-05 0.0000000000000000e+00  5.8194179605519224e-05 6.9531909499976520e-05 0.0000000000000000e+00  5.8194179588433241e-05 6.9531909498588647e-05 0.0000000000000000e+00  5.8194179601085522e-05 6.9531909493644685e-05 0.0000000000000000e+00  5.8194179604545970e-05 6.9531909518017739e-05 0.0000000000000000e+00  5.8194179599355298e-05 6.9531909504053026e-05 0.0000000000000000e+00  5.8194179606059923e-05 6.9531909501103996e-05 0.0000000000000000e+00  5.8194179604113414e-05 6.9531909514288084e-05 0.0000000000000000e+00  5.8194179606925041e-05 6.9531909510037822e-05 0.0000000000000000e+00  5.8194179593948334e-05 6.9531909513594005e-05 0.0000000000000000e+00  5.8194179605951780e-05 6.9531909511165582e-05 0.0000000000000000e+00  5.8194179596868097e-05 6.9531909501711149e-05 0.0000000000000000e+00  5.8194179599139020e-05 6.9531909508996988e-05 0.0000000000000000e+00  5.8194179597408782e-05 6.9531909509344122e-05 0.0000000000000000e+00  5.8194179605735509e-05 6.9531909512119490e-05 0.0000000000000000e+00  5.8194179608006431e-05 6.9531909505614277e-05 0.0000000000000000e+00  5.8194179597408789e-05 6.9531909528686099e-05 0.0000000000000000e+00  5.8194179593732056e-05 6.9531909513420532e-05 0.0000000000000000e+00  5.8194179596435541e-05 6.9531909509170839e-05 0.0000000000000000e+00  5.8194179606276201e-05 6.9531909506481639e-05 0.0000000000000000e+00  5.8194179603356444e-05 6.9531909496333506e-05 0.0000000000000000e+00  5.8194179601950634e-05 6.9531909521920677e-05 0.0000000000000000e+00  5.8194179594921588e-05 6.9531909496940659e-05 0.0000000000000000e+00  5.8194179589082075e-05 6.9531909495813089e-05 0.0000000000000000e+00  5.8194179606708763e-05 6.9531909512206606e-05 0.0000000000000000e+00  5.8194179596002978e-05 6.9531909508650043e-05 0.0000000000000000e+00  5.8194179589190211e-05 6.9531909502665247e-05 0.0000000000000000e+00  5.8194179602599474e-05 6.9531909502925455e-05 0.0000000000000000e+00  5.8194179601950634e-05 6.9531909510818447e-05 0.0000000000000000e+00  5.8194179598273908e-05 6.9531909504139762e-05 0.0000000000000000e+00  5.8194179604329698e-05 6.9531909509084103e-05 0.0000000000000000e+00  5.8194179595678565e-05 6.9531909499022328e-05 0.0000000000000000e+00  5.8194179613954087e-05 6.9531909517150188e-05 0.0000000000000000e+00  5.8194179595678565e-05 6.9531909495552881e-05 0.0000000000000000e+00  5.8194179614494778e-05 6.9531909520793107e-05 0.0000000000000000e+00  5.8194179605411089e-05 6.9531909516629771e-05 0.0000000000000000e+00  5.8194179609952933e-05 6.9531909512380078e-05 0.0000000000000000e+00  5.8194179598273908e-05 6.9531909514895047e-05 0.0000000000000000e+00  5.8194179602923888e-05 6.9531909504486707e-05 0.0000000000000000e+00  5.8194179610818045e-05 6.9531909518537967e-05 0.0000000000000000e+00  5.8194179594489032e-05 1.7299403540972931e-04 0.0000000000000000e+00  -1.0543260750855929e-04 -5.5721592101395576e-04 0.0000000000000000e+00  -1.0543260749998251e-04 -5.5721592100233311e-04 0.0000000000000000e+00  -1.0543260751412980e-04 -5.5721592101664480e-04 0.0000000000000000e+00  -1.0543260751165401e-04 -5.5721592103511939e-04 0.0000000000000000e+00  -1.0543260750413827e-04 -5.5721592099964429e-04 0.0000000000000000e+00  -1.0543260751032770e-04 -5.5721592099912420e-04 0.0000000000000000e+00  -1.0543260751236137e-04 -5.5721592099383264e-04 0.0000000000000000e+00  -1.0543260752712759e-04 -5.5721592102184908e-04 0.0000000000000000e+00  -1.0543260752058447e-04 -5.5721592101326219e-04 0.0000000000000000e+00  -1.0543260753676542e-04 -5.5721592103407823e-04 0.0000000000000000e+00  -1.0543260751262663e-04 -5.5721592100207323e-04 0.0000000000000000e+00  -1.0543260753349385e-04 -5.5721592101837963e-04 0.0000000000000000e+00  -1.0543260752712759e-04 -5.5721592100632265e-04 0.0000000000000000e+00  -1.0543260751748975e-04 -5.5721592102401683e-04 0.0000000000000000e+00  -1.0543260751244980e-04 -5.5721592100840573e-04 0.0000000000000000e+00  -1.0543260750794035e-04 -5.5721592101837898e-04 0.0000000000000000e+00  -1.0543260750139724e-04 -5.5721592100719001e-04 0.0000000000000000e+00  -1.0543260751023929e-04 -5.5721592100831899e-04 0.0000000000000000e+00  -1.0543260751342242e-04 -5.5721592101785856e-04 0.0000000000000000e+00  -1.0543260750493406e-04 -5.5721592100545529e-04 0.0000000000000000e+00  -1.0543260751669398e-04 -5.5721592100580364e-04 0.0000000000000000e+00  -1.0543260752182236e-04 -5.5721592101673099e-04 0.0000000000000000e+00  -1.0543260750431511e-04 -5.5721592101152682e-04 0.0000000000000000e+00  -1.0543260751368767e-04 -5.5721592102991630e-04 0.0000000000000000e+00  -1.0543260751076980e-04 -5.5721592099235813e-04 0.0000000000000000e+00  -1.0543260752668548e-04 -5.5721592102679239e-04 0.0000000000000000e+00  -1.0543260751510241e-04 -5.5721592102488419e-04 0.0000000000000000e+00  -1.0543260749140573e-04 -5.5721592100181237e-04 0.0000000000000000e+00  -1.0543260750051303e-04 -5.5721592099600408e-04 0.0000000000000000e+00  -1.0543260749954041e-04 -5.5721592101855245e-04 0.0000000000000000e+00  -1.0543260751315716e-04 -5.5721592101230745e-04 0.0000000000000000e+00  -1.0543260750811719e-04 -5.5721592102410357e-04 0.0000000000000000e+00  -1.0543260751041612e-04 -5.5721592099860313e-04 0.0000000000000000e+00  -1.0543260750502247e-04 -5.5721592100528182e-04 0.0000000000000000e+00  -1.0543260750139724e-04 -5.5721592100198888e-04 0.0000000000000000e+00  -1.0543260750758667e-04 -5.5721592100380730e-04 0.0000000000000000e+00  -1.0543260750891297e-04 -5.5721592100640939e-04 0.0000000000000000e+00  -1.0543260750369617e-04 -5.5721592100224605e-04 0.0000000000000000e+00  -1.0543260751112348e-04 -5.5721592101516974e-04 0.0000000000000000e+00  -1.0543260751448347e-04 -5.5721592100493487e-04 0.0000000000000000e+00  -1.0543260751050454e-04 -5.5721592101708097e-04 0.0000000000000000e+00  -1.0543260750033620e-04 -5.5721592101508300e-04 0.0000000000000000e+00  -1.0543260751289190e-04 -5.5721592100883800e-04 0.0000000000000000e+00  -1.0543260750696772e-04 -5.5721592100658286e-04 0.0000000000000000e+00  -1.0543260749388150e-04 -5.5721592099851639e-04 0.0000000000000000e+00  -1.0543260750068988e-04 -5.5721592101126661e-04 0.0000000000000000e+00  -1.0543260750988561e-04 -5.5721592101100944e-04 0.0000000000000000e+00  -1.0543260752199920e-04 -5.5721592102167495e-04 0.0000000000000000e+00  -1.0543260750749825e-04 -5.5721592101595037e-04 0.0000000000000000e+00  -1.0543260749450044e-04 -5.5721592100293994e-04 0.0000000000000000e+00  -1.0543260750855929e-04 -3.1431497457205674e-04 0.0000000000000000e+00  1.2646521126316579e-04 -1.3193949827475238e-05 0.0000000000000000e+00  1.2646521126755540e-04 -1.3193949807525918e-05 0.0000000000000000e+00  1.2646521125166921e-04 -1.3193949823658846e-05 0.0000000000000000e+00  1.2646521123369273e-04 -1.3193949835281493e-05 0.0000000000000000e+00  1.2646521122710832e-04 -1.3193949832332463e-05 0.0000000000000000e+00  1.2646521122397289e-04 -1.3193949862690151e-05 0.0000000000000000e+00  1.2646521123996357e-04 -1.3193949844995945e-05 0.0000000000000000e+00  1.2646521123766427e-04 -1.3193949880037386e-05 0.0000000000000000e+00  1.2646521125762652e-04 -1.3193949809087196e-05 0.0000000000000000e+00  1.2646521125166918e-04 -1.3193949875874023e-05 0.0000000000000000e+00  1.2646521126201613e-04 -1.3193949834934576e-05 0.0000000000000000e+00  1.2646521125814911e-04 -1.3193949834761103e-05 0.0000000000000000e+00  1.2646521126588315e-04 -1.3193949852628728e-05 0.0000000000000000e+00  1.2646521125553623e-04 -1.3193949821924122e-05 0.0000000000000000e+00  1.2646521124769764e-04 -1.3193949850894032e-05 0.0000000000000000e+00  1.2646521125208725e-04 -1.3193949860955401e-05 0.0000000000000000e+00  1.2646521125396850e-04 -1.3193949818801620e-05 0.0000000000000000e+00  1.2646521123850038e-04 -1.3193949855751257e-05 0.0000000000000000e+00  1.2646521125407302e-04 -1.3193949838577468e-05 0.0000000000000000e+00  1.2646521124884730e-04 -1.3193949803362581e-05 0.0000000000000000e+00  1.2646521122815346e-04 -1.3193949850373615e-05 0.0000000000000000e+00  1.2646521123975456e-04 -1.3193949868241239e-05 0.0000000000000000e+00  1.2646521124832474e-04 -1.3193949819668982e-05 0.0000000000000000e+00  1.2646521123546947e-04 -1.3193949850547087e-05 0.0000000000000000e+00  1.2646521123860490e-04 -1.3193949839618302e-05 0.0000000000000000e+00  1.2646521124383062e-04 -1.3193949856792064e-05 0.0000000