<?xml version="1.0"?>
<VTKFile type="UnstructuredGrid"  version="0.1"  >
<UnstructuredGrid>
<Piece  NumberOfPoints="2601" NumberOfCells="5000">
<Points>
<DataArray  type="Float64"  NumberOfComponents="3"  format="ascii">0 0 0  0.02 0 0  0.04 0 0  0.06 0 0  0.08 0 0  0.1 0 0  0.12 0 0  0.14 0 0  0.16 0 0  0.18 0 0  0.2 0 0  0.22 0 0  0.24 0 0  0.26 0 0  0.28 0 0  0.3 0 0  0.32 0 0  0.34 0 0  0.36 0 0  0.38 0 0  0.4 0 0  0.42 0 0  0.44 0 0  0.46 0 0  0.48 0 0  0.5 0 0  0.52 0 0  0.54 0 0  0.5600000000000001 0 0  0.58 0 0  0.6 0 0  0.62 0 0  0.64 0 0  0.66 0 0  0.68 0 0  0.7 0 0  0.72 0 0  0.74 0 0  0.76 0 0  0.78 0 0  0.8 0 0  0.82 0 0  0.84 0 0  0.86 0 0  0.88 0 0  0.9 0 0  0.92 0 0  0.9399999999999999 0 0  0.96 0 0  0.98 0 0  1 0 0  0 0.01313563088723984 0  0.02 0.01313563088723984 0  0.04 0.01313563088723984 0  0.06 0.01313563088723984 0  0.08 0.01313563088723984 0  0.1 0.01313563088723984 0  0.12 0.01313563088723984 0  0.14 0.01313563088723984 0  0.16 0.01313563088723984 0  0.18 0.01313563088723984 0  0.2 0.01313563088723984 0  0.22 0.01313563088723984 0  0.24 0.01313563088723984 0  0.26 0.01313563088723984 0  0.28 0.01313563088723984 0  0.3 0.01313563088723984 0  0.32 0.01313563088723984 0  0.34 0.01313563088723984 0  0.36 0.01313563088723984 0  0.38 0.01313563088723984 0  0.4 0.01313563088723984 0  0.42 0.01313563088723984 0  0.44 0.01313563088723984 0  0.46 0.01313563088723984 0  0.48 0.01313563088723984 0  0.5 0.01313563088723984 0  0.52 0.01313563088723984 0  0.54 0.01313563088723984 0  0.5600000000000001 0.01313563088723984 0  0.58 0.01313563088723984 0  0.6 0.01313563088723984 0  0.62 0.01313563088723984 0  0.64 0.01313563088723984 0  0.66 0.01313563088723984 0  0.68 0.01313563088723984 0  0.7 0.01313563088723984 0  0.72 0.01313563088723984 0  0.74 0.01313563088723984 0  0.76 0.01313563088723984 0  0.78 0.01313563088723984 0  0.8 0.01313563088723984 0  0.82 0.01313563088723984 0  0.84 0.01313563088723984 0  0.86 0.01313563088723984 0  0.88 0.01313563088723984 0  0.9 0.01313563088723984 0  0.92 0.01313563088723984 0  0.9399999999999999 0.01313563088723984 0  0.96 0.01313563088723984 0  0.98 0.01313563088723984 0  1 0.01313563088723984 0  0 0.02664639863733726 0  0.02 0.02664639863733726 0  0.04 0.02664639863733726 0  0.06 0.02664639863733726 0  0.08 0.02664639863733726 0  0.1 0.02664639863733726 0  0.12 0.02664639863733726 0  0.14 0.02664639863733726 0  0.16 0.02664639863733726 0  0.18 0.02664639863733726 0  0.2 0.02664639863733726 0  0.22 0.02664639863733726 0  0.24 0.02664639863733726 0  0.26 0.02664639863733726 0  0.28 0.02664639863733726 0  0.3 0.02664639863733726 0  0.32 0.02664639863733726 0  0.34 0.02664639863733726 0  0.36 0.02664639863733726 0  0.38 0.02664639863733726 0  0.4 0.02664639863733726 0  0.42 0.02664639863733726 0  0.44 0.02664639863733726 0  0.46 0.02664639863733726 0  0.48 0.02664639863733726 0  0.5 0.02664639863733726 0  0.52 0.02664639863733726 0  0.54 0.02664639863733726 0  0.5600000000000001 0.02664639863733726 0  0.58 0.02664639863733726 0  0.6 0.02664639863733726 0  0.62 0.02664639863733726 0  0.64 0.02664639863733726 0  0.66 0.02664639863733726 0  0.68 0.02664639863733726 0  0.7 0.02664639863733726 0  0.72 0.02664639863733726 0  0.74 0.02664639863733726 0  0.76 0.02664639863733726 0  0.78 0.02664639863733726 0  0.8 0.02664639863733726 0  0.82 0.02664639863733726 0  0.84 0.02664639863733726 0  0.86 0.02664639863733726 0  0.88 0.02664639863733726 0  0.9 0.02664639863733726 0  0.92 0.02664639863733726 0  0.9399999999999999 0.02664639863733726 0  0.96 0.02664639863733726 0  0.98 0.02664639863733726 0  1 0.02664639863733726 0  0 0.04101652939099896 0  0.02 0.04101652939099896 0  0.04 0.04101652939099896 0  0.06 0.04101652939099896 0  0.08 0.04101652939099896 0  0.1 0.04101652939099896 0  0.12 0.04101652939099896 0  0.14 0.04101652939099896 0  0.16 0.04101652939099896 0  0.18 0.04101652939099896 0  0.2 0.04101652939099896 0  0.22 0.04101652939099896 0  0.24 0.04101652939099896 0  0.26 0.04101652939099896 0  0.28 0.04101652939099896 0  0.3 0.04101652939099896 0  0.32 0.04101652939099896 0  0.34 0.04101652939099896 0  0.36 0.04101652939099896 0  0.38 0.04101652939099896 0  0.4 0.04101652939099896 0  0.42 0.04101652939099896 0  0.44 0.04101652939099896 0  0.46 0.04101652939099896 0  0.48 0.04101652939099896 0  0.5 0.04101652939099896 0  0.52 0.04101652939099896 0  0.54 0.04101652939099896 0  0.5600000000000001 0.04101652939099896 0  0.58 0.04101652939099896 0  0.6 0.04101652939099896 0  0.62 0.04101652939099896 0  0.64 0.04101652939099896 0  0.66 0.04101652939099896 0  0.68 0.04101652939099896 0  0.7 0.04101652939099896 0  0.72 0.04101652939099896 0  0.74 0.04101652939099896 0  0.76 0.04101652939099896 0  0.78 0.04101652939099896 0  0.8 0.04101652939099896 0  0.82 0.04101652939099896 0  0.84 0.04101652939099896 0  0.86 0.04101652939099896 0  0.88 0.04101652939099896 0  0.9 0.04101652939099896 0  0.92 0.04101652939099896 0  0.9399999999999999 0.04101652939099896 0  0.96 0.04101652939099896 0  0.98 0.04101652939099896 0  1 0.04101652939099896 0  0 0.05705811164099547 0  0.02 0.05705811164099547 0  0.04 0.05705811164099547 0  0.06 0.05705811164099547 0  0.08 0.05705811164099547 0  0.1 0.05705811164099547 0  0.12 0.05705811164099547 0  0.14 0.05705811164099547 0  0.16 0.05705811164099547 0  0.18 0.05705811164099547 0  0.2 0.05705811164099547 0  0.22 0.05705811164099547 0  0.24 0.05705811164099547 0  0.26 0.05705811164099547 0  0.28 0.05705811164099547 0  0.3 0.05705811164099547 0  0.32 0.05705811164099547 0  0.34 0.05705811164099547 0  0.36 0.05705811164099547 0  0.38 0.05705811164099547 0  0.4 0.05705811164099547 0  0.42 0.05705811164099547 0  0.44 0.05705811164099547 0  0.46 0.05705811164099547 0  0.48 0.05705811164099547 0  0.5 0.05705811164099547 0  0.52 0.05705811164099547 0  0.54 0.05705811164099547 0  0.5600000000000001 0.05705811164099547 0  0.58 0.05705811164099547 0  0.6 0.05705811164099547 0  0.62 0.05705811164099547 0  0.64 0.05705811164099547 0  0.66 0.05705811164099547 0  0.68 0.05705811164099547 0  0.7 0.05705811164099547 0  0.72 0.05705811164099547 0  0.74 0.05705811164099547 0  0.76 0.05705811164099547 0  0.78 0.05705811164099547 0  0.8 0.05705811164099547 0  0.82 0.05705811164099547 0  0.84 0.05705811164099547 0  0.86 0.05705811164099547 0  0.88 0.05705811164099547 0  0.9 0.05705811164099547 0  0.92 0.05705811164099547 0  0.9399999999999999 0.05705811164099547 0  0.96 0.05705811164099547 0  0.98 0.05705811164099547 0  1 0.05705811164099547 0  0 0.07667714377545 0  0.02 0.07667714377545 0  0.04 0.07667714377545 0  0.06 0.07667714377545 0  0.08 0.07667714377545 0  0.1 0.07667714377545 0  0.12 0.07667714377545 0  0.14 0.07667714377545 0  0.16 0.07667714377545 0  0.18 0.07667714377545 0  0.2 0.07667714377545 0  0.22 0.07667714377545 0  0.24 0.07667714377545 0  0.26 0.07667714377545 0  0.28 0.07667714377545 0  0.3 0.07667714377545 0  0.32 0.07667714377545 0  0.34 0.07667714377545 0  0.36 0.07667714377545 0  0.38 0.07667714377545 0  0.4 0.07667714377545 0  0.42 0.07667714377545 0  0.44 0.07667714377545 0  0.46 0.07667714377545 0  0.48 0.07667714377545 0  0.5 0.07667714377545 0  0.52 0.07667714377545 0  0.54 0.07667714377545 0  0.5600000000000001 0.07667714377545 0  0.58 0.07667714377545 0  0.6 0.07667714377545 0  0.62 0.07667714377545 0  0.64 0.07667714377545 0  0.66 0.07667714377545 0  0.68 0.07667714377545 0  0.7 0.07667714377545 0  0.72 0.07667714377545 0  0.74 0.07667714377545 0  0.76 0.07667714377545 0  0.78 0.07667714377545 0  0.8 0.07667714377545 0  0.82 0.07667714377545 0  0.84 0.07667714377545 0  0.86 0.07667714377545 0  0.88 0.07667714377545 0  0.9 0.07667714377545 0  0.92 0.07667714377545 0  0.9399999999999999 0.07667714377545 0  0.96 0.07667714377545 0  0.98 0.07667714377545 0  1 0.07667714377545 0  0 0.1098730133816912 0  0.02 0.1098730133816912 0  0.04 0.1098730133816912 0  0.06 0.1098730133816912 0  0.08 0.1098730133816912 0  0.1 0.1098730133816912 0  0.12 0.1098730133816912 0  0.14 0.1098730133816912 0  0.16 0.1098730133816912 0  0.18 0.1098730133816912 0  0.2 0.1098730133816912 0  0.22 0.1098730133816912 0  0.24 0.1098730133816912 0  0.26 0.1098730133816912 0  0.28 0.1098730133816912 0  0.3 0.1098730133816912 0  0.32 0.1098730133816912 0  0.34 0.1098730133816912 0  0.36 0.1098730133816912 0  0.38 0.1098730133816912 0  0.4 0.1098730133816912 0  0.42 0.1098730133816912 0  0.44 0.1098730133816912 0  0.46 0.1098730133816912 0  0.48 0.1098730133816912 0  0.5 0.1098730133816912 0  0.52 0.1098730133816912 0  0.54 0.1098730133816912 0  0.5600000000000001 0.1098730133816912 0  0.58 0.1098730133816912 0  0.6 0.1098730133816912 0  0.62 0.1098730133816912 0  0.64 0.1098730133816912 0  0.66 0.1098730133816912 0  0.68 0.1098730133816912 0  0.7 0.1098730133816912 0  0.72 0.1098730133816912 0  0.74 0.1098730133816912 0  0.76 0.1098730133816912 0  0.78 0.1098730133816912 0  0.8 0.1098730133816912 0  0.82 0.1098730133816912 0  0.84 0.1098730133816912 0  0.86 0.1098730133816912 0  0.88 0.1098730133816912 0  0.9 0.1098730133816912 0  0.92 0.1098730133816912 0  0.9399999999999999 0.1098730133816912 0  0.96 0.1098730133816912 0  0.98 0.1098730133816912 0  1 0.1098730133816912 0  0 0.1603283563168221 0  0.02 0.1603283563168221 0  0.04 0.1603283563168221 0  0.06 0.1603283563168221 0  0.08 0.1603283563168221 0  0.1 0.1603283563168221 0  0.12 0.1603283563168221 0  0.14 0.1603283563168221 0  0.16 0.1603283563168221 0  0.18 0.1603283563168221 0  0.2 0.1603283563168221 0  0.22 0.1603283563168221 0  0.24 0.1603283563168221 0  0.26 0.1603283563168221 0  0.28 0.1603283563168221 0  0.3 0.1603283563168221 0  0.32 0.1603283563168221 0  0.34 0.1603283563168221 0  0.36 0.1603283563168221 0  0.38 0.1603283563168221 0  0.4 0.1603283563168221 0  0.42 0.1603283563168221 0  0.44 0.1603283563168221 0  0.46 0.1603283563168221 0  0.48 0.1603283563168221 0  0.5 0.1603283563168221 0  0.52 0.1603283563168221 0  0.54 0.1603283563168221 0  0.5600000000000001 0.1603283563168221 0  0.58 0.1603283563168221 0 
[...]
<PointData  Vectors="u_paraw"> 
<DataArray  type="Float64"  Name="u_paraw"  NumberOfComponents="3" format="ascii">2.3010472085940921e-04 8.0003232144439020e-04 0.0000000000000000e+00  2.3010472086356916e-04 8.0003232144879206e-04 0.0000000000000000e+00  2.3010472085671838e-04 8.0003232144301327e-04 0.0000000000000000e+00  2.3010472085726320e-04 8.0003232145129646e-04 0.0000000000000000e+00  2.3010472086129109e-04 8.0003232145446233e-04 0.0000000000000000e+00  2.3010472086097740e-04 8.0003232145453877e-04 0.0000000000000000e+00  2.3010472085693297e-04 8.0003232144706731e-04 0.0000000000000000e+00  2.3010472085982186e-04 8.0003232144255833e-04 0.0000000000000000e+00  2.3010472086160469e-04 8.0003232145621928e-04 0.0000000000000000e+00  2.3010472086241359e-04 8.0003232145280274e-04 0.0000000000000000e+00  2.3010472086193486e-04 8.0003232144594105e-04 0.0000000000000000e+00  2.3010472086299136e-04 8.0003232145035375e-04 0.0000000000000000e+00  2.3010472086178627e-04 8.0003232144622164e-04 0.0000000000000000e+00  2.3010472085688345e-04 8.0003232144305577e-04 0.0000000000000000e+00  2.3010472086441101e-04 8.0003232144653855e-04 0.0000000000000000e+00  2.3010472085605808e-04 8.0003232144379302e-04 0.0000000000000000e+00  2.3010472085987138e-04 8.0003232144268714e-04 0.0000000000000000e+00  2.3010472086419642e-04 8.0003232144429425e-04 0.0000000000000000e+00  2.3010472085747773e-04 8.0003232143949958e-04 0.0000000000000000e+00  2.3010472085699903e-04 8.0003232143800338e-04 0.0000000000000000e+00  2.3010472086276024e-04 8.0003232144811064e-04 0.0000000000000000e+00  2.3010472085827012e-04 8.0003232144530007e-04 0.0000000000000000e+00  2.3010472085744472e-04 8.0003232143745044e-04 0.0000000000000000e+00  2.3010472086046566e-04 8.0003232144208248e-04 0.0000000000000000e+00  2.3010472086114247e-04 8.0003232144234019e-04 0.0000000000000000e+00  2.3010472086351961e-04 8.0003232144825994e-04 0.0000000000000000e+00  2.3010472086318944e-04 8.0003232144801057e-04 0.0000000000000000e+00  2.3010472086310691e-04 8.0003232144497480e-04 0.0000000000000000e+00  2.3010472086328849e-04 8.0003232144229043e-04 0.0000000000000000e+00  2.3010472085894693e-04 8.0003232143892496e-04 0.0000000000000000e+00  2.3010472085855074e-04 8.0003232144489891e-04 0.0000000000000000e+00  2.3010472085992090e-04 8.0003232144141862e-04 0.0000000000000000e+00  2.3010472085871584e-04 8.0003232143688666e-04 0.0000000000000000e+00  2.3010472085919457e-04 8.0003232144187399e-04 0.0000000000000000e+00  2.3010472086205041e-04 8.0003232144403599e-04 0.0000000000000000e+00  2.3010472086705227e-04 8.0003232144709984e-04 0.0000000000000000e+00  2.3010472085901296e-04 8.0003232144324008e-04 0.0000000000000000e+00  2.3010472086231452e-04 8.0003232144109336e-04 0.0000000000000000e+00  2.3010472086072977e-04 8.0003232144405323e-04 0.0000000000000000e+00  2.3010472086122501e-04 8.0003232144434597e-04 0.0000000000000000e+00  2.3010472085741170e-04 8.0003232143947150e-04 0.0000000000000000e+00  2.3010472086049867e-04 8.0003232144355450e-04 0.0000000000000000e+00  2.3010472086016850e-04 8.0003232144056210e-04 0.0000000000000000e+00  2.3010472085569490e-04 8.0003232143370994e-04 0.0000000000000000e+00  2.3010472086180278e-04 8.0003232144164630e-04 0.0000000000000000e+00  2.3010472085696602e-04 8.0003232143622529e-04 0.0000000000000000e+00  2.3010472085972282e-04 8.0003232144049065e-04 0.0000000000000000e+00  2.3010472086120850e-04 8.0003232144968024e-04 0.0000000000000000e+00  2.3010472086049867e-04 8.0003232144077894e-04 0.0000000000000000e+00  2.3010472085643776e-04 8.0003232144387976e-04 0.0000000000000000e+00  2.3010472085940916e-04 -1.7216428278879833e-15 0.0000000000000000e+00  -4.8011059957387445e-04 -1.2861992917442136e-04 0.0000000000000000e+00  -4.8011059956443733e-04 -1.2861992916884856e-04 0.0000000000000000e+00  -4.8011059956925222e-04 -1.2861992916739578e-04 0.0000000000000000e+00  -4.8011059956928437e-04 -1.2861992916754752e-04 0.0000000000000000e+00  -4.8011059957198067e-04 -1.2861992916709215e-04 0.0000000000000000e+00  -4.8011059957413129e-04 -1.2861992917036653e-04 0.0000000000000000e+00  -4.8011059957525480e-04 -1.2861992917539706e-04 0.0000000000000000e+00  -4.8011059957140290e-04 -1.2861992917262167e-04 0.0000000000000000e+00  -4.8011059956694119e-04 -1.2861992916646340e-04 0.0000000000000000e+00  -4.8011059957050415e-04 -1.2861992917396591e-04 0.0000000000000000e+00  -4.8011059957397083e-04 -1.2861992917786921e-04 0.0000000000000000e+00  -4.8011059956764733e-04 -1.2861992917038821e-04 0.0000000000000000e+00  -4.8011059957393874e-04 -1.2861992917244803e-04 0.0000000000000000e+00  -4.8011059957021526e-04 -1.2861992916893522e-04 0.0000000000000000e+00  -4.8011059957204491e-04 -1.2861992917583109e-04 0.0000000000000000e+00  -4.8011059957522270e-04 -1.2861992918298648e-04 0.0000000000000000e+00  -4.8011059957060043e-04 -1.2861992917518022e-04 0.0000000000000000e+00  -4.8011059957066466e-04 -1.2861992917168944e-04 0.0000000000000000e+00  -4.8011059956809673e-04 -1.2861992917658968e-04 0.0000000000000000e+00  -4.8011059957101774e-04 -1.2861992917197098e-04 0.0000000000000000e+00  -4.8011059956886711e-04 -1.2861992917450837e-04 0.0000000000000000e+00  -4.8011059956828934e-04 -1.2861992917262150e-04 0.0000000000000000e+00  -4.8011059957535107e-04 -1.2861992917244803e-04 0.0000000000000000e+00  -4.8011059956745472e-04 -1.2861992917021493e-04 0.0000000000000000e+00  -4.8011059956739054e-04 -1.2861992917359729e-04 0.0000000000000000e+00  -4.8011059956777575e-04 -1.2861992917233961e-04 0.0000000000000000e+00  -4.8011059956806464e-04 -1.2861992916945563e-04 0.0000000000000000e+00  -4.8011059956934861e-04 -1.2861992917544043e-04 0.0000000000000000e+00  -4.8011059956886711e-04 -1.2861992917891058e-04 0.0000000000000000e+00  -4.8011059957291157e-04 -1.2861992917962545e-04 0.0000000000000000e+00  -4.8011059956880293e-04 -1.2861992917288171e-04 0.0000000000000000e+00  -4.8011059956803255e-04 -1.2861992917539706e-04 0.0000000000000000e+00  -4.8011059956851399e-04 -1.2861992917374907e-04 0.0000000000000000e+00  -4.8011059956989428e-04 -1.2861992917422612e-04 0.0000000000000000e+00  -4.8011059957214119e-04 -1.2861992917897563e-04 0.0000000000000000e+00  -4.8011059956556089e-04 -1.2861992916908700e-04 0.0000000000000000e+00  -4.8011059957156341e-04 -1.2861992918038439e-04 0.0000000000000000e+00  -4.8011059956723007e-04 -1.2861992917925682e-04 0.0000000000000000e+00  -4.8011059957207700e-04 -1.2861992918012418e-04 0.0000000000000000e+00  -4.8011059957159551e-04 -1.2861992917604758e-04 0.0000000000000000e+00  -4.8011059956870660e-04 -1.2861992917975626e-04 0.0000000000000000e+00  -4.8011059956963749e-04 -1.2861992917669810e-04 0.0000000000000000e+00  -4.8011059957278314e-04 -1.2861992917648126e-04 0.0000000000000000e+00  -4.8011059957034363e-04 -1.2861992917416107e-04 0.0000000000000000e+00  -4.8011059956790412e-04 -1.2861992917374907e-04 0.0000000000000000e+00  -4.8011059956450163e-04 -1.2861992916986763e-04 0.0000000000000000e+00  -4.8011059957182021e-04 -1.2861992918320402e-04 0.0000000000000000e+00  -4.8011059956783994e-04 -1.2861992917565727e-04 0.0000000000000000e+00  -4.8011059957072885e-04 -1.2861992917550548e-04 0.0000000000000000e+00  -4.8011059957207700e-04 -1.2861992917656800e-04 0.0000000000000000e+00  -4.8011059957387455e-04 6.9486599834056161e-04 0.0000000000000000e+00  4.3640251603306231e-06 4.2935344708003483e-04 0.0000000000000000e+00  4.3640251665475645e-06 4.2935344707782305e-04 0.0000000000000000e+00  4.3640251664268471e-06 4.2935344708007825e-04 0.0000000000000000e+00  4.3640251602099065e-06 4.2935344707799642e-04 0.0000000000000000e+00  4.3640251623828179e-06 4.2935344708285364e-04 0.0000000000000000e+00  4.3640251624431766e-06 4.2935344708233355e-04 0.0000000000000000e+00  4.3640251582784291e-06 4.2935344707829972e-04 0.0000000000000000e+00  4.3640251649178808e-06 4.2935344707921105e-04 0.0000000000000000e+00  4.3640251625638932e-06 4.2935344707973147e-04 0.0000000000000000e+00  4.3640251619603068e-06 4.2935344708120538e-04 0.0000000000000000e+00  4.3640251667286407e-06 4.2935344708736425e-04 0.0000000000000000e+00  4.3640251661854131e-06 4.2935344708163966e-04 0.0000000000000000e+00  4.3640251644953706e-06 4.2935344708441462e-04 0.0000000000000000e+00  4.3640251591838091e-06 4.2935344707816962e-04 0.0000000000000000e+00  4.3640251642539357e-06 4.2935344708159689e-04 0.0000000000000000e+00  4.3640251594856027e-06 4.2935344707604458e-04 0.0000000000000000e+00  4.3640251661250543e-06 4.2935344707595785e-04 0.0000000000000000e+00  4.3640251576748427e-06 4.2935344707669630e-04 0.0000000000000000e+00  4.3640251611152856e-06 4.2935344708129212e-04 0.0000000000000000e+00  4.3640251601495478e-06 4.2935344706854190e-04 0.0000000000000000e+00  4.3640251665475645e-06 4.2935344708484950e-04 0.0000000000000000e+00  4.3640251636503493e-06 4.2935344708003445e-04 0.0000000000000000e+00  4.3640251626846106e-06 4.2935344707417975e-04 0.0000000000000000e+00  4.3640251603306231e-06 4.2935344707617588e-04 0.0000000000000000e+00  4.3640251586405814e-06 4.2935344707457007e-04 0.0000000000000000e+00  4.3640251653403918e-06 4.2935344707513385e-04 0.0000000000000000e+00  4.3640251609945690e-06 4.2935344707673847e-04 0.0000000000000000e+00  4.3640251571919738e-06 4.2935344707118736e-04 0.0000000000000000e+00  4.3640251600891890e-06 4.2935344707283773e-04 0.0000000000000000e+00  4.3640251623828179e-06 4.2935344708038139e-04 0.0000000000000000e+00  4.3640251643746531e-06 4.2935344707374607e-04 0.0000000000000000e+00  4.3640251659439782e-06 4.2935344708515188e-04 0.0000000000000000e+00  4.3640251645557293e-06 4.2935344707448333e-04 0.0000000000000000e+00  4.3640251626846106e-06 4.2935344707747573e-04 0.0000000000000000e+00  4.3640251588216567e-06 4.2935344707570002e-04 0.0000000000000000e+00  4.3640251671511509e-06 4.2935344707578437e-04 0.0000000000000000e+00  4.3640251639521429e-06 4.2935344708259316e-04 0.0000000000000000e+00  4.3640251617188728e-06 4.2935344707391955e-04 0.0000000000000000e+00  4.3640251634692732e-06 4.2935344707639153e-04 0.0000000000000000e+00  4.3640251636503493e-06 4.2935344707934056e-04 0.0000000000000000e+00  4.3640251582180704e-06 4.2935344707275099e-04 0.0000000000000000e+00  4.3640251696862146e-06 4.2935344707769257e-04 0.0000000000000000e+00  4.3640251618395894e-06 4.2935344707305218e-04 0.0000000000000000e+00  4.3640251602702643e-06 4.2935344707994771e-04 0.0000000000000000e+00  4.3640251600288303e-06 4.2935344707526396e-04 0.0000000000000000e+00  4.3640251684790419e-06 4.2935344708393757e-04 0.0000000000000000e+00  4.3640251643746531e-06 4.2935344707227394e-04 0.0000000000000000e+00  4.3640251617188728e-06 4.2935344707504712e-04 0.0000000000000000e+00  4.3640251679961721e-06 4.2935344708454473e-04 0.0000000000000000e+00  4.3640251615377966e-06 4.2935344707105725e-04 0.0000000000000000e+00  4.3640251603306231e-06 9.9346421881761691e-04 0.0000000000000000e+00  1.4129667419659703e-04 -3.3423414896871506e-06 0.0000000000000000e+00  1.4129667419421796e-04 -3.3423414974934063e-06 0.0000000000000000e+00  1.4129667419702960e-04 -3.3423414857840228e-06 0.0000000000000000e+00  1.4129667419702960e-04 -3.3423414892534697e-06 0.0000000000000000e+00  1.4129667419486680e-04 -3.3423414927229167e-06 0.0000000000000000e+00  1.4129667419486680e-04 -3.3423414907279847e-06 0.0000000000000000e+00  1.4129667419097378e-04 -3.3423414935035423e-06 0.0000000000000000e+00  1.4129667419421796e-04 -3.3423414941974317e-06 0.0000000000000000e+00  1.4129667419335285e-04 -3.3423414898606230e-06 0.0000000000000000e+00  1.4129667419356915e-04 -3.3423414981872956e-06 0.0000000000000000e+00  1.4129667419692145e-04 -3.3423414918555550e-06 0.0000000000000000e+00  1.4129667419054121e-04 -3.3423415004424362e-06 0.0000000000000000e+00  1.4129667419173077e-04 -3.3423415000087553e-06 0.0000000000000000e+00  1.4129667419540749e-04 -3.3423414928963890e-06 0.0000000000000000e+00  1.4129667419010867e-04 -3.3423414954984878e-06 0.0000000000000000e+00  1.4129667419324473e-04 -3.3423414908147209e-06 0.0000000000000000e+00  1.4129667419335285e-04 -3.3423414985342403e-06 0.0000000000000000e+00  1.4129667419702957e-04 -3.3423414895136918e-06 0.0000000000000000e+00  1.4129667419702960e-04 -3.3423414906412485e-06 0.0000000000000000e+00  1.4129667418686452e-04 -3.3423415000087553e-06 0.0000000000000000e+00  1.4129667419584004e-04 -3.3423414891667471e-06 0.0000000000000000e+00  1.4129667419367727e-04 -3.3423414999220191e-06 0.0000000000000000e+00  1.4129667419821913e-04 -3.3423414922024997e-06 0.0000000000000000e+00  1.4129667419432608e-04 -3.3423414952382793e-06 0.0000000000000000e+00  1.4129667419281216e-04 -3.3423414935902784e-06 0.0000000000000000e+00  1.4129667419616448e-04 -3.3423414885595804e-06 0.0000000000000000e+00  1.4129667419562379e-04 -3.3423414981872956e-06 0.0000000000000000e+00  1.4129667418956798e-04 -3.3423414944576402e-06 0.0000000000000000e+00  1.4129667419151450e-04 -3.3423414987077262e-06 0.0000000000000000e+00  1.4129667419443426e-04 -3.3423414930698614e-06 0.0000000000000000e+00  1.4129667419594821e-04 -3.3423414933300699e-06 0.0000000000000000e+00  1.4129667419681332e-04 -3.3423414946311125e-06 0.0000000000000000e+00  1.4129667418945986e-04 -3.3423415033914661e-06 0.0000000000000000e+00  1.4129667419681332e-04 -3.3423414928963890e-06 0.0000000000000000e+00  1.4129667419443426e-04 -3.3423415020037008e-06 0.0000000000000000e+00  1.4129667419324473e-04 -3.3423414924627082e-06 0.0000000000000000e+00  1.4129667419302843e-04 -3.3423415013097979e-06 0.0000000000000000e+00  1.4129667419919236e-04 -3.3423414920290273e-06 0.0000000000000000e+00  1.4129667419529937e-04 -3.3423414900340953e-06 0.0000000000000000e+00  1.4129667419962493e-04 -3.3423414890799974e-06 0.0000000000000000e+00  1.4129667419140635e-04 -3.3423414995750880e-06 0.0000000000000000e+00  1.4129667419162262e-04 -3.3423415039118831e-06 0.0000000000000000e+00  1.4129667419400169e-04 -3.3423415034782022e-06 0.0000000000000000e+00  1.4129667419421796e-04 -3.3423414908147209e-06 0.0000000000000000e+00  1.4129667419129820e-04 -3.3423414933300699e-06 0.0000000000000000e+00  1.4129667419713772e-04 -3.3423414974066701e-06 0.0000000000000000e+00  1.4129667419237961e-04 -3.3423415052996754e-06 0.0000000000000000e+00  1.4129667419994935e-04 -3.3423414887330527e-06 0.0000000000000000e+00  1.4129667419757029e-04 -3.3423414946311125e-06 0.0000000000000000e+00  1.4129667420038189e-04 -3.3423414815339503e-06 0.0000000000000000e+00  1.4129667419659703e-04 -1.5949510180750956e-04 0.0000000000000000e+00  9.1814313395084229e-05 4.8619134221713345e-04 0.0000000000000000e+00  9.1814313394642118e-05 4.8619134222008248e-04 0.0000000000000000e+00  9.1814313391105315e-05 4.8619134220464355e-04 0.0000000000000000e+00  9.1814313394111605e-05 4.8619134222025590e-04 0.0000000000000000e+00  9.1814313389160053e-05 4.8619134221574562e-04 0.0000000000000000e+00  9.1814313389513734e-05 4.8619134221756740e-04 0.0000000000000000e+00  9.1814313385976917e-05 4.8619134221375036e-04 0.0000000000000000e+00  9.1814313387833749e-05 4.8619134221739393e-04 0.0000000000000000e+00  9.1814313385357973e-05 4.8619134221409795e-04 0.0000000000000000e+00  9.1814313388010582e-05 4.8619134222381176e-04 0.0000000000000000e+00  9.1814313393315814e-05 4.8619134221782761e-04 0.0000000000000000e+00  9.1814313384385349e-05 4.8619134221010809e-04 0.0000000000000000e+00  9.1814313384208516e-05 4.8619134221956168e-04 0.0000000000000000e+00  9.1814313383324308e-05 4.8619134220021952e-04 0.0000000000000000e+00  9.1814313390397941e-05 4.8619134220802707e-04 0.0000000000000000e+00  9.1814313383324308e-05 4.8619134221513814e-04 0.0000000000000000e+00  9.1814313389867414e-05 4.8619134221279626e-04 0.0000000000000000e+00  9.1814313395172646e-05 4.8619134222554778e-04 0.0000000000000000e+00  9.1814313385004293e-05 4.8619134221218911e-04 0.0000000000000000e+00  9.1814313386507444e-05 4.8619134220351549e-04 0.0000000000000000e+00  9.1814313388629526e-05 4.8619134221383840e-04 0.0000000000000000e+00  9.1814313388187429e-05 4.8619134221826064e-04 0.0000000000000000e+00  9.1814313387214805e-05 4.8619134220108688e-04 0.0000000000000000e+00  9.1814313389602150e-05 4.8619134221618027e-04 0.0000000000000000e+00  9.1814313382263254e-05 4.8619134220655126e-04 0.0000000000000000e+00  9.1814313385181140e-05 4.8619134221158196e-04 0.0000000000000000e+00  9.1814313394553702e-05 4.8619134222155662e-04 0.0000000000000000e+00  9.1814313391458982e-05 4.8619134221418404e-04 0.0000000000000000e+00  9.1814313386242181e-05 4.8619134220967647e-04 0.0000000000000000e+00  9.1814313390132678e-05 4.8619134222146988e-04 0.0000000000000000e+00  9.1814313391635829e-05 4.8619134221409730e-04 0.0000000000000000e+00  9.1814313388894790e-05 4.8619134220594410e-04 0.0000000000000000e+00  9.1814313386242181e-05 4.8619134220828598e-04 0.0000000000000000e+00  9.1814313392873717e-05 4.8619134221947495e-04 0.0000000000000000e+00  9.1814313391016885e-05 4.8619134221080404e-04 0.0000000000000000e+00  9.1814313392077926e-05 4.8619134221175543e-04 0.0000000000000000e+00  9.1814313390221094e-05 4.8619134221565856e-04 0.0000000000000000e+00  9.1814313389513734e-05 4.8619134221288300e-04 0.0000000000000000e+00  9.1814313390397941e-05 4.8619134221149522e-04 0.0000000000000000e+00  9.1814313389160053e-05 4.8619134220976050e-04 0.0000000000000000e+00  9.1814313392608453e-05 4.8619134221939092e-04 0.0000000000000000e+00  9.1814313387745332e-05 4.8619134220880640e-04 0.0000000000000000e+00  9.1814313388364276e-05 4.8619134220238792e-04 0.0000000000000000e+00  9.1814313395172646e-05 4.8619134221080133e-04 0.0000000000000000e+00  9.1814313387480068e-05 4.8619134221401057e-04 0.0000000000000000e+00  9.1814313388364276e-05 4.8619134221765349e-04 0.0000000000000000e+00  9.1814313389602150e-05 4.8619134222051849e-04 0.0000000000000000e+00  9.1814313393757911e-05 4.8619134221305647e-04 0.0000000000000000e+00  9.1814313395349479e-05 4.8619134221609224e-04 0.0000000000000000e+00  9.1814313396233686e-05 4.8619134221505140e-04 0.0000000000000000e+00  9.1814313395084229e-05 -5.2828015876483234e-04 0.0000000000000000e+00  -6.9001317464370147e-04 -3.1959849126791257e-03 0.0000000000000000e+00  -6.9001317464161124e-04 -3.1959849126621254e-03 0.0000000000000000e+00  -6.9001317464871819e-04 -3.1959849126732285e-03 0.0000000000000000e+00  -6.9001317464662784e-04 -3.1959849126714920e-03 0.0000000000000000e+00  -6.9001317465551158e-04 -3.1959849126851963e-03 0.0000000000000000e+00  -6.9001317465080842e-04 -3.1959849126704538e-03 0.0000000000000000e+00  -6.9001317464903163e-04 -3.1959849126806834e-03 0.0000000000000000e+00  -6.9001317464547826e-04 -3.1959849126763518e-03 0.0000000000000000e+00  -6.9001317464526923e-04 -3.1959849126772192e-03 0.0000000000000000e+00  -6.9001317464620977e-04 -3.1959849126720098e-03 0.0000000000000000e+00  -6.9001317464683688e-04 -3.1959849126846785e-03 0.0000000000000000e+00  -6.9001317464913625e-04 -3.1959849126827703e-03 0.0000000000000000e+00  -6.9001317465185348e-04 -3.1959849126780814e-03 0.0000000000000000e+00  -6.9001317465258510e-04 -3.1959849126766936e-03 0.0000000000000000e+00  -6.9001317465080842e-04 -3.1959849126855502e-03 0.0000000000000000e+00  -6.9001317465185348e-04 -3.1959849126805100e-03 0.0000000000000000e+00  -6.9001317464861356e-04 -3.1959849126772140e-03 0.0000000000000000e+00  -6.9001317464652333e-04 -3.1959849126687234e-03 0.0000000000000000e+00  -6.9001317465206252e-04 -3.1959849126723568e-03 0.0000000000000000e+00  -6.9001317465300317e-04 -3.1959849126792957e-03 0.0000000000000000e+00  -6.9001317465039035e-04 -3.1959849126761827e-03 0.0000000000000000e+00  -6.9001317465049487e-04 -3.1959849126786018e-03 0.0000000000000000e+00  -6.9001317465049487e-04 -3.1959849126735711e-03 0.0000000000000000e+00  -6.9001317464694139e-04 -3.1959849126744480e-03 0.0000000000000000e+00  -6.9001317465383931e-04 -3.1959849126798161e-03 0.0000000000000000e+00  -6.9001317464976325e-04 -3.1959849126786018e-03 0.0000000000000000e+00  -6.9001317