<?xml version="1.0"?>
<VTKFile type="UnstructuredGrid"  version="0.1"  >
<UnstructuredGrid>
<Piece  NumberOfPoints="2601" NumberOfCells="5000">
<Points>
<DataArray  type="Float64"  NumberOfComponents="3"  format="ascii">0 0 0  0.02 0 0  0.04 0 0  0.06 0 0  0.08 0 0  0.1 0 0  0.12 0 0  0.14 0 0  0.16 0 0  0.18 0 0  0.2 0 0  0.22 0 0  0.24 0 0  0.26 0 0  0.28 0 0  0.3 0 0  0.32 0 0  0.34 0 0  0.36 0 0  0.38 0 0  0.4 0 0  0.42 0 0  0.44 0 0  0.46 0 0  0.48 0 0  0.5 0 0  0.52 0 0  0.54 0 0  0.5600000000000001 0 0  0.58 0 0  0.6 0 0  0.62 0 0  0.64 0 0  0.66 0 0  0.68 0 0  0.7 0 0  0.72 0 0  0.74 0 0  0.76 0 0  0.78 0 0  0.8 0 0  0.82 0 0  0.84 0 0  0.86 0 0  0.88 0 0  0.9 0 0  0.92 0 0  0.9399999999999999 0 0  0.96 0 0  0.98 0 0  1 0 0  0 0.01313563088723984 0  0.02 0.01313563088723984 0  0.04 0.01313563088723984 0  0.06 0.01313563088723984 0  0.08 0.01313563088723984 0  0.1 0.01313563088723984 0  0.12 0.01313563088723984 0  0.14 0.01313563088723984 0  0.16 0.01313563088723984 0  0.18 0.01313563088723984 0  0.2 0.01313563088723984 0  0.22 0.01313563088723984 0  0.24 0.01313563088723984 0  0.26 0.01313563088723984 0  0.28 0.01313563088723984 0  0.3 0.01313563088723984 0  0.32 0.01313563088723984 0  0.34 0.01313563088723984 0  0.36 0.01313563088723984 0  0.38 0.01313563088723984 0  0.4 0.01313563088723984 0  0.42 0.01313563088723984 0  0.44 0.01313563088723984 0  0.46 0.01313563088723984 0  0.48 0.01313563088723984 0  0.5 0.01313563088723984 0  0.52 0.01313563088723984 0  0.54 0.01313563088723984 0  0.5600000000000001 0.01313563088723984 0  0.58 0.01313563088723984 0  0.6 0.01313563088723984 0  0.62 0.01313563088723984 0  0.64 0.01313563088723984 0  0.66 0.01313563088723984 0  0.68 0.01313563088723984 0  0.7 0.01313563088723984 0  0.72 0.01313563088723984 0  0.74 0.01313563088723984 0  0.76 0.01313563088723984 0  0.78 0.01313563088723984 0  0.8 0.01313563088723984 0  0.82 0.01313563088723984 0  0.84 0.01313563088723984 0  0.86 0.01313563088723984 0  0.88 0.01313563088723984 0  0.9 0.01313563088723984 0  0.92 0.01313563088723984 0  0.9399999999999999 0.01313563088723984 0  0.96 0.01313563088723984 0  0.98 0.01313563088723984 0  1 0.01313563088723984 0  0 0.02664639863733726 0  0.02 0.02664639863733726 0  0.04 0.02664639863733726 0  0.06 0.02664639863733726 0  0.08 0.02664639863733726 0  0.1 0.02664639863733726 0  0.12 0.02664639863733726 0  0.14 0.02664639863733726 0  0.16 0.02664639863733726 0  0.18 0.02664639863733726 0  0.2 0.02664639863733726 0  0.22 0.02664639863733726 0  0.24 0.02664639863733726 0  0.26 0.02664639863733726 0  0.28 0.02664639863733726 0  0.3 0.02664639863733726 0  0.32 0.02664639863733726 0  0.34 0.02664639863733726 0  0.36 0.02664639863733726 0  0.38 0.02664639863733726 0  0.4 0.02664639863733726 0  0.42 0.02664639863733726 0  0.44 0.02664639863733726 0  0.46 0.02664639863733726 0  0.48 0.02664639863733726 0  0.5 0.02664639863733726 0  0.52 0.02664639863733726 0  0.54 0.02664639863733726 0  0.5600000000000001 0.02664639863733726 0  0.58 0.02664639863733726 0  0.6 0.02664639863733726 0  0.62 0.02664639863733726 0  0.64 0.02664639863733726 0  0.66 0.02664639863733726 0  0.68 0.02664639863733726 0  0.7 0.02664639863733726 0  0.72 0.02664639863733726 0  0.74 0.02664639863733726 0  0.76 0.02664639863733726 0  0.78 0.02664639863733726 0  0.8 0.02664639863733726 0  0.82 0.02664639863733726 0  0.84 0.02664639863733726 0  0.86 0.02664639863733726 0  0.88 0.02664639863733726 0  0.9 0.02664639863733726 0  0.92 0.02664639863733726 0  0.9399999999999999 0.02664639863733726 0  0.96 0.02664639863733726 0  0.98 0.02664639863733726 0  1 0.02664639863733726 0  0 0.04101652939099896 0  0.02 0.04101652939099896 0  0.04 0.04101652939099896 0  0.06 0.04101652939099896 0  0.08 0.04101652939099896 0  0.1 0.04101652939099896 0  0.12 0.04101652939099896 0  0.14 0.04101652939099896 0  0.16 0.04101652939099896 0  0.18 0.04101652939099896 0  0.2 0.04101652939099896 0  0.22 0.04101652939099896 0  0.24 0.04101652939099896 0  0.26 0.04101652939099896 0  0.28 0.04101652939099896 0  0.3 0.04101652939099896 0  0.32 0.04101652939099896 0  0.34 0.04101652939099896 0  0.36 0.04101652939099896 0  0.38 0.04101652939099896 0  0.4 0.04101652939099896 0  0.42 0.04101652939099896 0  0.44 0.04101652939099896 0  0.46 0.04101652939099896 0  0.48 0.04101652939099896 0  0.5 0.04101652939099896 0  0.52 0.04101652939099896 0  0.54 0.04101652939099896 0  0.5600000000000001 0.04101652939099896 0  0.58 0.04101652939099896 0  0.6 0.04101652939099896 0  0.62 0.04101652939099896 0  0.64 0.04101652939099896 0  0.66 0.04101652939099896 0  0.68 0.04101652939099896 0  0.7 0.04101652939099896 0  0.72 0.04101652939099896 0  0.74 0.04101652939099896 0  0.76 0.04101652939099896 0  0.78 0.04101652939099896 0  0.8 0.04101652939099896 0  0.82 0.04101652939099896 0  0.84 0.04101652939099896 0  0.86 0.04101652939099896 0  0.88 0.04101652939099896 0  0.9 0.04101652939099896 0  0.92 0.04101652939099896 0  0.9399999999999999 0.04101652939099896 0  0.96 0.04101652939099896 0  0.98 0.04101652939099896 0  1 0.04101652939099896 0  0 0.05705811164099547 0  0.02 0.05705811164099547 0  0.04 0.05705811164099547 0  0.06 0.05705811164099547 0  0.08 0.05705811164099547 0  0.1 0.05705811164099547 0  0.12 0.05705811164099547 0  0.14 0.05705811164099547 0  0.16 0.05705811164099547 0  0.18 0.05705811164099547 0  0.2 0.05705811164099547 0  0.22 0.05705811164099547 0  0.24 0.05705811164099547 0  0.26 0.05705811164099547 0  0.28 0.05705811164099547 0  0.3 0.05705811164099547 0  0.32 0.05705811164099547 0  0.34 0.05705811164099547 0  0.36 0.05705811164099547 0  0.38 0.05705811164099547 0  0.4 0.05705811164099547 0  0.42 0.05705811164099547 0  0.44 0.05705811164099547 0  0.46 0.05705811164099547 0  0.48 0.05705811164099547 0  0.5 0.05705811164099547 0  0.52 0.05705811164099547 0  0.54 0.05705811164099547 0  0.5600000000000001 0.05705811164099547 0  0.58 0.05705811164099547 0  0.6 0.05705811164099547 0  0.62 0.05705811164099547 0  0.64 0.05705811164099547 0  0.66 0.05705811164099547 0  0.68 0.05705811164099547 0  0.7 0.05705811164099547 0  0.72 0.05705811164099547 0  0.74 0.05705811164099547 0  0.76 0.05705811164099547 0  0.78 0.05705811164099547 0  0.8 0.05705811164099547 0  0.82 0.05705811164099547 0  0.84 0.05705811164099547 0  0.86 0.05705811164099547 0  0.88 0.05705811164099547 0  0.9 0.05705811164099547 0  0.92 0.05705811164099547 0  0.9399999999999999 0.05705811164099547 0  0.96 0.05705811164099547 0  0.98 0.05705811164099547 0  1 0.05705811164099547 0  0 0.07667714377545 0  0.02 0.07667714377545 0  0.04 0.07667714377545 0  0.06 0.07667714377545 0  0.08 0.07667714377545 0  0.1 0.07667714377545 0  0.12 0.07667714377545 0  0.14 0.07667714377545 0  0.16 0.07667714377545 0  0.18 0.07667714377545 0  0.2 0.07667714377545 0  0.22 0.07667714377545 0  0.24 0.07667714377545 0  0.26 0.07667714377545 0  0.28 0.07667714377545 0  0.3 0.07667714377545 0  0.32 0.07667714377545 0  0.34 0.07667714377545 0  0.36 0.07667714377545 0  0.38 0.07667714377545 0  0.4 0.07667714377545 0  0.42 0.07667714377545 0  0.44 0.07667714377545 0  0.46 0.07667714377545 0  0.48 0.07667714377545 0  0.5 0.07667714377545 0  0.52 0.07667714377545 0  0.54 0.07667714377545 0  0.5600000000000001 0.07667714377545 0  0.58 0.07667714377545 0  0.6 0.07667714377545 0  0.62 0.07667714377545 0  0.64 0.07667714377545 0  0.66 0.07667714377545 0  0.68 0.07667714377545 0  0.7 0.07667714377545 0  0.72 0.07667714377545 0  0.74 0.07667714377545 0  0.76 0.07667714377545 0  0.78 0.07667714377545 0  0.8 0.07667714377545 0  0.82 0.07667714377545 0  0.84 0.07667714377545 0  0.86 0.07667714377545 0  0.88 0.07667714377545 0  0.9 0.07667714377545 0  0.92 0.07667714377545 0  0.9399999999999999 0.07667714377545 0  0.96 0.07667714377545 0  0.98 0.07667714377545 0  1 0.07667714377545 0  0 0.1098730133816912 0  0.02 0.1098730133816912 0  0.04 0.1098730133816912 0  0.06 0.1098730133816912 0  0.08 0.1098730133816912 0  0.1 0.1098730133816912 0  0.12 0.1098730133816912 0  0.14 0.1098730133816912 0  0.16 0.1098730133816912 0  0.18 0.1098730133816912 0  0.2 0.1098730133816912 0  0.22 0.1098730133816912 0  0.24 0.1098730133816912 0  0.26 0.1098730133816912 0  0.28 0.1098730133816912 0  0.3 0.1098730133816912 0  0.32 0.1098730133816912 0  0.34 0.1098730133816912 0  0.36 0.1098730133816912 0  0.38 0.1098730133816912 0  0.4 0.1098730133816912 0  0.42 0.1098730133816912 0  0.44 0.1098730133816912 0  0.46 0.1098730133816912 0  0.48 0.1098730133816912 0  0.5 0.1098730133816912 0  0.52 0.1098730133816912 0  0.54 0.1098730133816912 0  0.5600000000000001 0.1098730133816912 0  0.58 0.1098730133816912 0  0.6 0.1098730133816912 0  0.62 0.1098730133816912 0  0.64 0.1098730133816912 0  0.66 0.1098730133816912 0  0.68 0.1098730133816912 0  0.7 0.1098730133816912 0  0.72 0.1098730133816912 0  0.74 0.1098730133816912 0  0.76 0.1098730133816912 0  0.78 0.1098730133816912 0  0.8 0.1098730133816912 0  0.82 0.1098730133816912 0  0.84 0.1098730133816912 0  0.86 0.1098730133816912 0  0.88 0.1098730133816912 0  0.9 0.1098730133816912 0  0.92 0.1098730133816912 0  0.9399999999999999 0.1098730133816912 0  0.96 0.1098730133816912 0  0.98 0.1098730133816912 0  1 0.1098730133816912 0  0 0.1603283563168221 0  0.02 0.1603283563168221 0  0.04 0.1603283563168221 0  0.06 0.1603283563168221 0  0.08 0.1603283563168221 0  0.1 0.1603283563168221 0  0.12 0.1603283563168221 0  0.14 0.1603283563168221 0  0.16 0.1603283563168221 0  0.18 0.1603283563168221 0  0.2 0.1603283563168221 0  0.22 0.1603283563168221 0  0.24 0.1603283563168221 0  0.26 0.1603283563168221 0  0.28 0.1603283563168221 0  0.3 0.1603283563168221 0  0.32 0.1603283563168221 0  0.34 0.1603283563168221 0  0.36 0.1603283563168221 0  0.38 0.1603283563168221 0  0.4 0.1603283563168221 0  0.42 0.1603283563168221 0  0.44 0.1603283563168221 0  0.46 0.1603283563168221 0  0.48 0.1603283563168221 0  0.5 0.1603283563168221 0  0.52 0.1603283563168221 0  0.54 0.1603283563168221 0  0.5600000000000001 0.1603283563168221 0  0.58 0.1603283563168221 0 
[...]
<PointData  Vectors="u_paraw"> 
<DataArray  type="Float64"  Name="u_paraw"  NumberOfComponents="3" format="ascii">2.4843477271306175e-05 3.0639927123837394e-04 0.0000000000000000e+00  2.4843477270150629e-05 3.0639927123792942e-04 0.0000000000000000e+00  2.4843477266502397e-05 3.0639927123803784e-04 0.0000000000000000e+00  2.4843477268813496e-05 3.0639927123242162e-04 0.0000000000000000e+00  2.4843477285189238e-05 3.0639927124248301e-04 0.0000000000000000e+00  2.4843477277859767e-05 3.0639927124393601e-04 0.0000000000000000e+00  2.4843477277876277e-05 3.0639927123730031e-04 0.0000000000000000e+00  2.4843477267327790e-05 3.0639927122926675e-04 0.0000000000000000e+00  2.4843477280434984e-05 3.0639927125317341e-04 0.0000000000000000e+00  2.4843477264009721e-05 3.0639927123970724e-04 0.0000000000000000e+00  2.4843477277100409e-05 3.0639927123822226e-04 0.0000000000000000e+00  2.4843477276753745e-05 3.0639927123302893e-04 0.0000000000000000e+00  2.4843477271322679e-05 3.0639927123736536e-04 0.0000000000000000e+00  2.4843477273055996e-05 3.0639927123757136e-04 0.0000000000000000e+00  2.4843477275003918e-05 3.0639927123948048e-04 0.0000000000000000e+00  2.4843477271735373e-05 3.0639927123782073e-04 0.0000000000000000e+00  2.4843477276076925e-05 3.0639927124002166e-04 0.0000000000000000e+00  2.4843477279626102e-05 3.0639927123446062e-04 0.0000000000000000e+00  2.4843477279461025e-05 3.0639927121987718e-04 0.0000000000000000e+00  2.4843477278140399e-05 3.0639927123249730e-04 0.0000000000000000e+00  2.4843477269226187e-05 3.0639927122097315e-04 0.0000000000000000e+00  2.4843477274029958e-05 3.0639927122304305e-04 0.0000000000000000e+00  2.4843477278404524e-05 3.0639927123166246e-04 0.0000000000000000e+00  2.4843477278288972e-05 3.0639927123508946e-04 0.0000000000000000e+00  2.4843477272544256e-05 3.0639927122992774e-04 0.0000000000000000e+00  2.4843477267624929e-05 3.0639927123645463e-04 0.0000000000000000e+00  2.4843477275482644e-05 3.0639927124067218e-04 0.0000000000000000e+00  2.4843477273221076e-05 3.0639927123677989e-04 0.0000000000000000e+00  2.4843477267740485e-05 3.0639927123361565e-04 0.0000000000000000e+00  2.4843477271900450e-05 3.0639927122426820e-04 0.0000000000000000e+00  2.4843477270101101e-05 3.0639927122138422e-04 0.0000000000000000e+00  2.4843477278239448e-05 3.0639927123073005e-04 0.0000000000000000e+00  2.4843477270117608e-05 3.0639927122253348e-04 0.0000000000000000e+00  2.4843477276951839e-05 3.0639927123500180e-04 0.0000000000000000e+00  2.4843477273369645e-05 3.0639927123430954e-04 0.0000000000000000e+00  2.4843477282300368e-05 3.0639927125967824e-04 0.0000000000000000e+00  2.4843477264670031e-05 3.0639927122799786e-04 0.0000000000000000e+00  2.4843477269787452e-05 3.0639927123731115e-04 0.0000000000000000e+00  2.4843477268598888e-05 3.0639927123185762e-04 0.0000000000000000e+00  2.4843477268136673e-05 3.0639927122834480e-04 0.0000000000000000e+00  2.4843477273336628e-05 3.0639927123281334e-04 0.0000000000000000e+00  2.4843477271867436e-05 3.0639927123814599e-04 0.0000000000000000e+00  2.4843477278718174e-05 3.0639927123272498e-04 0.0000000000000000e+00  2.4843477268962062e-05 3.0639927123581495e-04 0.0000000000000000e+00  2.4843477268829999e-05 3.0639927122141675e-04 0.0000000000000000e+00  2.4843477283455914e-05 3.0639927125576427e-04 0.0000000000000000e+00  2.4843477267360804e-05 3.0639927123649963e-04 0.0000000000000000e+00  2.4843477281673072e-05 3.0639927122842070e-04 0.0000000000000000e+00  2.4843477271520772e-05 3.0639927123328876e-04 0.0000000000000000e+00  2.4843477267063665e-05 3.0639927122643661e-04 0.0000000000000000e+00  2.4843477271306168e-05 -2.8748037400806167e-15 0.0000000000000000e+00  3.1185799366304256e-05 2.0926328757934172e-04 0.0000000000000000e+00  3.1185799359627678e-05 2.0926328757615417e-04 0.0000000000000000e+00  3.1185799360333860e-05 2.0926328758016577e-04 0.0000000000000000e+00  3.1185799361393125e-05 2.0926328758456757e-04 0.0000000000000000e+00  3.1185799372338851e-05 2.0926328758383032e-04 0.0000000000000000e+00  3.1185799365437585e-05 2.0926328758790705e-04 0.0000000000000000e+00  3.1185799365758577e-05 2.0926328758255080e-04 0.0000000000000000e+00  3.1185799366304256e-05 2.0926328757682651e-04 0.0000000000000000e+00  3.1185799366753644e-05 2.0926328757836607e-04 0.0000000000000000e+00  3.1185799354331364e-05 2.0926328756761049e-04 0.0000000000000000e+00  3.1185799364185732e-05 2.0926328758439424e-04 0.0000000000000000e+00  3.1185799359435097e-05 2.0926328757853955e-04 0.0000000000000000e+00  3.1185799368486985e-05 2.0926328757038605e-04 0.0000000000000000e+00  3.1185799367845009e-05 2.0926328758216048e-04 0.0000000000000000e+00  3.1185799362227697e-05 2.0926328758524019e-04 0.0000000000000000e+00  3.1185799355390630e-05 2.0926328757142688e-04 0.0000000000000000e+00  3.1185799371375890e-05 2.0926328758068597e-04 0.0000000000000000e+00  3.1185799366207965e-05 2.0926328757010472e-04 0.0000000000000000e+00  3.1185799364282029e-05 2.0926328757775862e-04 0.0000000000000000e+00  3.1185799371407989e-05 2.0926328758107628e-04 0.0000000000000000e+00  3.1185799365277096e-05 2.0926328758432946e-04 0.0000000000000000e+00  3.1185799368133895e-05 2.0926328756869469e-04 0.0000000000000000e+00  3.1185799370380822e-05 2.0926328757496138e-04 0.0000000000000000e+00  3.1185799368486985e-05 2.0926328758088169e-04 0.0000000000000000e+00  3.1185799364956105e-05 2.0926328757752010e-04 0.0000000000000000e+00  3.1185799368840076e-05 2.0926328756967047e-04 0.0000000000000000e+00  3.1185799371696874e-05 2.0926328758920780e-04 0.0000000000000000e+00  3.1185799359242502e-05 2.0926328758046913e-04 0.0000000000000000e+00  3.1185799363896839e-05 2.0926328758435176e-04 0.0000000000000000e+00  3.1185799369995632e-05 2.0926328758051250e-04 0.0000000000000000e+00  3.1185799371279592e-05 2.0926328758786339e-04 0.0000000000000000e+00  3.1185799359691883e-05 2.0926328758101123e-04 0.0000000000000000e+00  3.1185799357830145e-05 2.0926328755878508e-04 0.0000000000000000e+00  3.1185799378373446e-05 2.0926328756956205e-04 0.0000000000000000e+00  3.1185799370573410e-05 2.0926328757728277e-04 0.0000000000000000e+00  3.1185799366368454e-05 2.0926328757847420e-04 0.0000000000000000e+00  3.1185799364474624e-05 2.0926328758641056e-04 0.0000000000000000e+00  3.1185799360333860e-05 2.0926328758272427e-04 0.0000000000000000e+00  3.1185799365983271e-05 2.0926328758461078e-04 0.0000000000000000e+00  3.1185799363479557e-05 2.0926328758834044e-04 0.0000000000000000e+00  3.1185799366849942e-05 2.0926328757485415e-04 0.0000000000000000e+00  3.1185799365790676e-05 2.0926328758415542e-04 0.0000000000000000e+00  3.1185799370509219e-05 2.0926328757405065e-04 0.0000000000000000e+00  3.1185799373654910e-05 2.0926328758417710e-04 0.0000000000000000e+00  3.1185799360077073e-05 2.0926328757530833e-04 0.0000000000000000e+00  3.1185799384247551e-05 2.0926328758790675e-04 0.0000000000000000e+00  3.1185799353753586e-05 2.0926328757749961e-04 0.0000000000000000e+00  3.1185799369161061e-05 2.0926328757340013e-04 0.0000000000000000e+00  3.1185799361200530e-05 2.0926328758140154e-04 0.0000000000000000e+00  3.1185799370091930e-05 2.0926328758927285e-04 0.0000000000000000e+00  3.1185799366304256e-05 5.1340936479638531e-04 0.0000000000000000e+00  -4.8976617419947091e-05 -5.9187272896904335e-04 0.0000000000000000e+00  -4.8976617411979751e-05 -5.9187272896544380e-04 0.0000000000000000e+00  -4.8976617415540907e-05 -5.9187272897043123e-04 0.0000000000000000e+00  -4.8976617411134723e-05 -5.9187272897251268e-04 0.0000000000000000e+00  -4.8976617400571965e-05 -5.9187272894558110e-04 0.0000000000000000e+00  -4.8976617417774181e-05 -5.9187272895841849e-04 0.0000000000000000e+00  -4.8976617408237512e-05 -5.9187272896852250e-04 0.0000000000000000e+00  -4.8976617404314197e-05 -5.9187272895191328e-04 0.0000000000000000e+00  -4.8976617414454449e-05 -5.9187272896479360e-04 0.0000000000000000e+00  -4.8976617412885127e-05 -5.9187272895794068e-04 0.0000000000000000e+00  -4.8976617408780737e-05 -5.9187272895859196e-04 0.0000000000000000e+00  -4.8976617405642087e-05 -5.9187272896037005e-04 0.0000000000000000e+00  -4.8976617408116792e-05 -5.9187272896080298e-04 0.0000000000000000e+00  -4.8976617407573566e-05 -5.9187272896644083e-04 0.0000000000000000e+00  -4.8976617406185313e-05 -5.9187272897325113e-04 0.0000000000000000e+00  -4.8976617410651854e-05 -5.9187272896557347e-04 0.0000000000000000e+00  -4.8976617405400656e-05 -5.9187272897320625e-04 0.0000000000000000e+00  -4.8976617418860633e-05 -5.9187272897446544e-04 0.0000000000000000e+00  -4.8976617410229347e-05 -5.9187272897398687e-04 0.0000000000000000e+00  -4.8976617399968376e-05 -5.9187272897004038e-04 0.0000000000000000e+00  -4.8976617418498482e-05 -5.9187272896531478e-04 0.0000000000000000e+00  -4.8976617418920996e-05 -5.9187272896626736e-04 0.0000000000000000e+00  -4.8976617414816606e-05 -5.9187272897442056e-04 0.0000000000000000e+00  -4.8976617400390883e-05 -5.9187272897181999e-04 0.0000000000000000e+00  -4.8976617419826372e-05 -5.9187272897034396e-04 0.0000000000000000e+00  -4.8976617420188523e-05 -5.9187272896795871e-04 0.0000000000000000e+00  -4.8976617401235910e-05 -5.9187272897507108e-04 0.0000000000000000e+00  -4.8976617403227745e-05 -5.9187272896136676e-04 0.0000000000000000e+00  -4.8976617416687722e-05 -5.9187272895972203e-04 0.0000000000000000e+00  -4.8976617423930762e-05 -5.9187272897797674e-04 0.0000000000000000e+00  -4.8976617405219581e-05 -5.9187272896991027e-04 0.0000000000000000e+00  -4.8976617421274982e-05 -5.9187272897476750e-04 0.0000000000000000e+00  -4.8976617421274982e-05 -5.9187272896383874e-04 0.0000000000000000e+00  -4.8976617404615992e-05 -5.9187272896479284e-04 0.0000000000000000e+00  -4.8976617419403859e-05 -5.9187272897091099e-04 0.0000000000000000e+00  -4.8976617415299476e-05 -5.9187272898257376e-04 0.0000000000000000e+00  -4.8976617407754642e-05 -5.9187272896999701e-04 0.0000000000000000e+00  -4.8976617412885127e-05 -5.9187272898062219e-04 0.0000000000000000e+00  -4.8976617405340293e-05 -5.9187272897038732e-04 0.0000000000000000e+00  -4.8976617411074367e-05 -5.9187272895984888e-04 0.0000000000000000e+00  -4.8976617424051481e-05 -5.9187272897359981e-04 0.0000000000000000e+00  -4.8976617416506647e-05 -5.9187272895958867e-04 0.0000000000000000e+00  -4.8976617409987908e-05 -5.9187272896114992e-04 0.0000000000000000e+00  -4.8976617413488716e-05 -5.9187272897476750e-04 0.0000000000000000e+00  -4.8976617410712217e-05 -5.9187272896539999e-04 0.0000000000000000e+00  -4.8976617410289703e-05 -5.9187272897385677e-04 0.0000000000000000e+00  -4.8976617421757851e-05 -5.9187272897524780e-04 0.0000000000000000e+00  -4.8976617412643696e-05 -5.9187272896579031e-04 0.0000000000000000e+00  -4.8976617406426752e-05 -5.9187272896539999e-04 0.0000000000000000e+00  -4.8976617397131520e-05 -5.9187272895056811e-04 0.0000000000000000e+00  -4.8976617419947091e-05 -2.2277412396951119e-04 0.0000000000000000e+00  5.2060424779681185e-06 -7.4033309168698713e-05 0.0000000000000000e+00  5.2060424686681499e-06 -7.4033309187780671e-05 0.0000000000000000e+00  5.2060424700739586e-06 -7.4033309188648047e-05 0.0000000000000000e+00  5.2060424719123250e-06 -7.4033309190035798e-05 0.0000000000000000e+00  5.2060425022994329e-06 -7.4033309176765164e-05 0.0000000000000000e+00  5.2060424905122622e-06 -7.4033309176158065e-05 0.0000000000000000e+00  5.2060424672623403e-06 -7.4033309184050948e-05 0.0000000000000000e+00  5.2060424734262727e-06 -7.4033309190382797e-05 0.0000000000000000e+00  5.2060424809960148e-06 -7.4033309173035563e-05 0.0000000000000000e+00  5.2060424785088143e-06 -7.4033309187520395e-05 0.0000000000000000e+00  5.2060424826181023e-06 -7.4033309170953894e-05 0.0000000000000000e+00  5.2060424786169533e-06 -7.4033309197755372e-05 0.0000000000000000e+00  5.2060424726692989e-06 -7.4033309184658101e-05 0.0000000000000000e+00  5.2060424740751084e-06 -7.4033309181101918e-05 0.0000000000000000e+00  5.2060424756971952e-06 -7.4033309184918513e-05 0.0000000000000000e+00  5.2060424747239433e-06 -7.4033309180841710e-05 0.0000000000000000e+00  5.2060424688844279e-06 -7.4033309201311447e-05 0.0000000000000000e+00  5.2060424799146230e-06 -7.4033309177545939e-05 0.0000000000000000e+00  5.2060424760216139e-06 -7.4033309187346923e-05 0.0000000000000000e+00  5.2060424801309019e-06 -7.4033309182489697e-05 0.0000000000000000e+00  5.2060424768867267e-06 -7.4033309194979909e-05 0.0000000000000000e+00  5.2060424771030056e-06 -7.4033309174596705e-05 0.0000000000000000e+00  5.2060424701820984e-06 -7.4033309182489697e-05 0.0000000000000000e+00  5.2060424762378910e-06 -7.4033309181015385e-05 0.0000000000000000e+00  5.2060424733181346e-06 -7.4033309184744838e-05 0.0000000000000000e+00  5.2060424825099642e-06 -7.4033309169132326e-05 0.0000000000000000e+00  5.2060424796983459e-06 -7.4033309166703713e-05 0.0000000000000000e+00  5.2060424742913865e-06 -7.4033309185785672e-05 0.0000000000000000e+00  5.2060424719123250e-06 -7.4033309201225131e-05 0.0000000000000000e+00  5.2060424673704793e-06 -7.4033309185698936e-05 0.0000000000000000e+00  5.2060424842401908e-06 -7.4033309184397893e-05 0.0000000000000000e+00  5.2060424752646392e-06 -7.4033309183443795e-05 0.0000000000000000e+00  5.2060424727774387e-06 -7.4033309181188655e-05 0.0000000000000000e+00  5.2060424848890256e-06 -7.4033309188301021e-05 0.0000000000000000e+00  5.2060424829425210e-06 -7.4033309176245113e-05 0.0000000000000000e+00  5.2060424582867887e-06 -7.4033309196020540e-05 0.0000000000000000e+00  5.2060424772111446e-06 -7.4033309183010114e-05 0.0000000000000000e+00  5.2060424742913865e-06 -7.4033309204780894e-05 0.0000000000000000e+00  5.2060424734262736e-06 -7.4033309191943940e-05 0.0000000000000000e+00  5.2060424833750779e-06 -7.4033309191770468e-05 0.0000000000000000e+00  5.2060424819692683e-06 -7.4033309171648096e-05 0.0000000000000000e+00  5.2060424724530209e-06 -7.4033309183877476e-05 0.0000000000000000e+00  5.2060424806715978e-06 -7.4033309178326361e-05 0.0000000000000000e+00  5.2060424723448819e-06 -7.4033309187260187e-05 0.0000000000000000e+00  5.2060424871599489e-06 -7.4033309191076578e-05 0.0000000000000000e+00  5.2060424843483298e-06 -7.4033309182576433e-05 0.0000000000000000e+00  5.2060424729937167e-06 -7.4033309184051368e-05 0.0000000000000000e+00  5.2060424779681185e-06 -7.4033309194892970e-05 0.0000000000000000e+00  5.2060424867273920e-06 -7.4033309182489697e-05 0.0000000000000000e+00  5.2060424772111446e-06 -7.4033309192464357e-05 0.0000000000000000e+00  5.2060424779681185e-06 -7.4815440837593778e-04 0.0000000000000000e+00  -2.9585597529872175e-05 8.3168064219513158e-05 0.0000000000000000e+00  -2.9585597544461549e-05 8.3168064208324191e-05 0.0000000000000000e+00  -2.9585597535531087e-05 8.3168064222288743e-05 0.0000000000000000e+00  -2.9585597541632093e-05 8.3168064203813897e-05 0.0000000000000000e+00  -2.9585597525893255e-05 8.3168064229227596e-05 0.0000000000000000e+00  -2.9585597548263626e-05 8.3168064223503076e-05 0.0000000000000000e+00  -2.9585597551093082e-05 8.3168064225237691e-05 0.0000000000000000e+00  -2.9585597544284709e-05 8.3168064227059259e-05 0.0000000000000000e+00  -2.9585597558520398e-05 8.3168064197742432e-05 0.0000000000000000e+00  -2.9585597549147830e-05 8.3168064209711916e-05 0.0000000000000000e+00  -2.9585597550562558e-05 8.3168064212140637e-05 0.0000000000000000e+00  -2.9585597564532987e-05 8.3168064227232732e-05 0.0000000000000000e+00  -2.9585597550208877e-05 8.3168064203553648e-05 0.0000000000000000e+00  -2.9585597547644685e-05 8.3168064230008181e-05 0.0000000000000000e+00  -2.9585597545257333e-05 8.3168064224197074e-05 0.0000000000000000e+00  -2.9585597543754185e-05 8.3168064217778380e-05 0.0000000000000000e+00  -2.9585597536238448e-05 8.3168064238334853e-05 0.0000000000000000e+00  -2.9585597545611013e-05 8.3168064218992903e-05 0.0000000000000000e+00  -2.9585597531817424e-05 8.3168064251518752e-05 0.0000000000000000e+00  -2.9585597539686844e-05 8.3168064210405805e-05 0.0000000000000000e+00  -2.9585597549943614e-05 8.3168064218645959e-05 0.0000000000000000e+00  -2.9585597533408992e-05 8.3168064249437084e-05 0.0000000000000000e+00  -2.9585597547733105e-05 8.3168064221681508e-05 0.0000000000000000e+00  -2.9585597543312081e-05 8.3168064223676657e-05 0.0000000000000000e+00  -2.9585597548705729e-05 8.3168064219599840e-05 0.0000000000000000e+00  -2.9585597541543673e-05 8.3168064231222487e-05 0.0000000000000000e+00  -2.9585597539156321e-05 8.3168064211880320e-05 0.0000000000000000e+00  -2.9585597525185891e-05 8.3168064232870474e-05 0.0000000000000000e+00  -2.9585597538979480e-05 8.3168064220641135e-05 0.0000000000000000e+00  -2.9585597533143732e-05 8.3168064223329495e-05 0.0000000000000000e+00  -2.9585597542958401e-05 8.3168064230788806e-05 0.0000000000000000e+00  -2.9585597540482628e-05 8.3168064215696712e-05 0.0000000000000000e+00  -2.9585597542869981e-05 8.3168064223416231e-05 0.0000000000000000e+00  -2.9585597533143732e-05 8.3168064228186721e-05 0.0000000000000000e+00  -2.9585597535442664e-05 8.3168064222636067e-05 0.0000000000000000e+00  -2.9585597538360536e-05 8.3168064229487764e-05 0.0000000000000000e+00  -2.9585597536150028e-05 8.3168064222722342e-05 0.0000000000000000e+00  -2.9585597549678354e-05 8.3168064207977193e-05 0.0000000000000000e+00  -2.9585597537741596e-05 8.3168064213615044e-05 0.0000000000000000e+00  -2.9585597533762676e-05 8.3168064224283593e-05 0.0000000000000000e+00  -2.9585597537034232e-05 8.3168064225151416e-05 0.0000000000000000e+00  -2.9585597537034232e-05 8.3168064234258253e-05 0.0000000000000000e+00  -2.9585597537387912e-05 8.3168064228013249e-05 0.0000000000000000e+00  -2.9585597541366833e-05 8.3168064226798942e-05 0.0000000000000000e+00  -2.9585597530579539e-05 8.3168064235385823e-05 0.0000000000000000e+00  -2.9585597530314276e-05 8.3168064224977483e-05 0.0000000000000000e+00  -2.9585597545168913e-05 8.3168064225671833e-05 0.0000000000000000e+00  -2.9585597540305788e-05 8.3168064216390601e-05 0.0000000000000000e+00  -2.9585597525451155e-05 8.3168064240850202e-05 0.0000000000000000e+00  -2.9585597539156321e-05 8.3168064226278525e-05 0.0000000000000000e+00  -2.9585597529872175e-05 5.7559909265630959e-04 0.0000000000000000e+00  4.0383059604090792e-04 1.7340051821598465e-03 0.0000000000000000e+00  4.0383059603129256e-04 1.7340051821470095e-03 0.0000000000000000e+00  4.0383059602345399e-04 1.7340051821235912e-03 0.0000000000000000e+00  4.0383059602512621e-04 1.7340051821359069e-03 0.0000000000000000e+00  4.0383059600223757e-04 1.7340051821190801e-03 0.0000000000000000e+00  4.0383059600526845e-04 1.7340051821064181e-03 0.0000000000000000e+00  4.0383059600756772e-04 1.7340051821194257e-03 0.0000000000000000e+00  4.0383059601760120e-04 1.7340051820911525e-03 0.0000000000000000e+00  4.0383059602219979e-04 1.7340051821140509e-03 0.0000000000000000e+00  4.0383059604028076e-04 1.7340051821055479e-03 0.0000000000000000e+00  4.0383059603380092e-04 1.7340051821112753e-03 0.0000000000000000e+00  4.0383059603495055e-04 1.7340051821135305e-03 0.0000000000000000e+00  4.0383059603892209e-04 1.7340051821163032e-03 0.0000000000000000e+00  4.0383059603045642e-04 1.7340051821216809e-03 0.0000000000000000e+00  4.0383059602606681e-04 1.7340051821286245e-03 0.0000000000000000e+00  4.0383059602345394e-04 1.7340051821079765e-03 0.0000000000000000e+00  4.0383059602240877e-04 1.7340051821350382e-03 0.0000000000000000e+00  4.0383059601425665e-04 1.7340051821185631e-03 0.0000000000000000e+00  4.0383059602355846e-04 1.7340051821091908e-03 0.0000000000000000e+00  4.0383059601404762e-04 1.7340051821412832e-03 0.0000000000000000e+00  4.0383059601979595e-04 1.7340051821251551e-03 0.0000000000000000e+00  4.0383059601561538e-04 1.7340051820883742e-03 0.0000000000000000e+00  4.0383059602199076e-04 1.7340051821274054e-03 0.0000000000000000e+00  4.0383059600892644e-04 1.7340051821300123e-03 0.0000000000000000e+00  4.0383059600181945e-04 1.7340051821046806e-03 0.0000000000000000e+00  4.0383059601885530e-04 1.7340051820991294e-03 0.0000000000000000e+00  4.038305960