<?xml version="1.0"?>
<VTKFile type="UnstructuredGrid"  version="0.1"  >
<UnstructuredGrid>
<Piece  NumberOfPoints="2601" NumberOfCells="5000">
<Points>
<DataArray  type="Float64"  NumberOfComponents="3"  format="ascii">0 0 0  0.02 0 0  0.04 0 0  0.06 0 0  0.08 0 0  0.1 0 0  0.12 0 0  0.14 0 0  0.16 0 0  0.18 0 0  0.2 0 0  0.22 0 0  0.24 0 0  0.26 0 0  0.28 0 0  0.3 0 0  0.32 0 0  0.34 0 0  0.36 0 0  0.38 0 0  0.4 0 0  0.42 0 0  0.44 0 0  0.46 0 0  0.48 0 0  0.5 0 0  0.52 0 0  0.54 0 0  0.5600000000000001 0 0  0.58 0 0  0.6 0 0  0.62 0 0  0.64 0 0  0.66 0 0  0.68 0 0  0.7 0 0  0.72 0 0  0.74 0 0  0.76 0 0  0.78 0 0  0.8 0 0  0.82 0 0  0.84 0 0  0.86 0 0  0.88 0 0  0.9 0 0  0.92 0 0  0.9399999999999999 0 0  0.96 0 0  0.98 0 0  1 0 0  0 0.01313563088723984 0  0.02 0.01313563088723984 0  0.04 0.01313563088723984 0  0.06 0.01313563088723984 0  0.08 0.01313563088723984 0  0.1 0.01313563088723984 0  0.12 0.01313563088723984 0  0.14 0.01313563088723984 0  0.16 0.01313563088723984 0  0.18 0.01313563088723984 0  0.2 0.01313563088723984 0  0.22 0.01313563088723984 0  0.24 0.01313563088723984 0  0.26 0.01313563088723984 0  0.28 0.01313563088723984 0  0.3 0.01313563088723984 0  0.32 0.01313563088723984 0  0.34 0.01313563088723984 0  0.36 0.01313563088723984 0  0.38 0.01313563088723984 0  0.4 0.01313563088723984 0  0.42 0.01313563088723984 0  0.44 0.01313563088723984 0  0.46 0.01313563088723984 0  0.48 0.01313563088723984 0  0.5 0.01313563088723984 0  0.52 0.01313563088723984 0  0.54 0.01313563088723984 0  0.5600000000000001 0.01313563088723984 0  0.58 0.01313563088723984 0  0.6 0.01313563088723984 0  0.62 0.01313563088723984 0  0.64 0.01313563088723984 0  0.66 0.01313563088723984 0  0.68 0.01313563088723984 0  0.7 0.01313563088723984 0  0.72 0.01313563088723984 0  0.74 0.01313563088723984 0  0.76 0.01313563088723984 0  0.78 0.01313563088723984 0  0.8 0.01313563088723984 0  0.82 0.01313563088723984 0  0.84 0.01313563088723984 0  0.86 0.01313563088723984 0  0.88 0.01313563088723984 0  0.9 0.01313563088723984 0  0.92 0.01313563088723984 0  0.9399999999999999 0.01313563088723984 0  0.96 0.01313563088723984 0  0.98 0.01313563088723984 0  1 0.01313563088723984 0  0 0.02664639863733726 0  0.02 0.02664639863733726 0  0.04 0.02664639863733726 0  0.06 0.02664639863733726 0  0.08 0.02664639863733726 0  0.1 0.02664639863733726 0  0.12 0.02664639863733726 0  0.14 0.02664639863733726 0  0.16 0.02664639863733726 0  0.18 0.02664639863733726 0  0.2 0.02664639863733726 0  0.22 0.02664639863733726 0  0.24 0.02664639863733726 0  0.26 0.02664639863733726 0  0.28 0.02664639863733726 0  0.3 0.02664639863733726 0  0.32 0.02664639863733726 0  0.34 0.02664639863733726 0  0.36 0.02664639863733726 0  0.38 0.02664639863733726 0  0.4 0.02664639863733726 0  0.42 0.02664639863733726 0  0.44 0.02664639863733726 0  0.46 0.02664639863733726 0  0.48 0.02664639863733726 0  0.5 0.02664639863733726 0  0.52 0.02664639863733726 0  0.54 0.02664639863733726 0  0.5600000000000001 0.02664639863733726 0  0.58 0.02664639863733726 0  0.6 0.02664639863733726 0  0.62 0.02664639863733726 0  0.64 0.02664639863733726 0  0.66 0.02664639863733726 0  0.68 0.02664639863733726 0  0.7 0.02664639863733726 0  0.72 0.02664639863733726 0  0.74 0.02664639863733726 0  0.76 0.02664639863733726 0  0.78 0.02664639863733726 0  0.8 0.02664639863733726 0  0.82 0.02664639863733726 0  0.84 0.02664639863733726 0  0.86 0.02664639863733726 0  0.88 0.02664639863733726 0  0.9 0.02664639863733726 0  0.92 0.02664639863733726 0  0.9399999999999999 0.02664639863733726 0  0.96 0.02664639863733726 0  0.98 0.02664639863733726 0  1 0.02664639863733726 0  0 0.04101652939099896 0  0.02 0.04101652939099896 0  0.04 0.04101652939099896 0  0.06 0.04101652939099896 0  0.08 0.04101652939099896 0  0.1 0.04101652939099896 0  0.12 0.04101652939099896 0  0.14 0.04101652939099896 0  0.16 0.04101652939099896 0  0.18 0.04101652939099896 0  0.2 0.04101652939099896 0  0.22 0.04101652939099896 0  0.24 0.04101652939099896 0  0.26 0.04101652939099896 0  0.28 0.04101652939099896 0  0.3 0.04101652939099896 0  0.32 0.04101652939099896 0  0.34 0.04101652939099896 0  0.36 0.04101652939099896 0  0.38 0.04101652939099896 0  0.4 0.04101652939099896 0  0.42 0.04101652939099896 0  0.44 0.04101652939099896 0  0.46 0.04101652939099896 0  0.48 0.04101652939099896 0  0.5 0.04101652939099896 0  0.52 0.04101652939099896 0  0.54 0.04101652939099896 0  0.5600000000000001 0.04101652939099896 0  0.58 0.04101652939099896 0  0.6 0.04101652939099896 0  0.62 0.04101652939099896 0  0.64 0.04101652939099896 0  0.66 0.04101652939099896 0  0.68 0.04101652939099896 0  0.7 0.04101652939099896 0  0.72 0.04101652939099896 0  0.74 0.04101652939099896 0  0.76 0.04101652939099896 0  0.78 0.04101652939099896 0  0.8 0.04101652939099896 0  0.82 0.04101652939099896 0  0.84 0.04101652939099896 0  0.86 0.04101652939099896 0  0.88 0.04101652939099896 0  0.9 0.04101652939099896 0  0.92 0.04101652939099896 0  0.9399999999999999 0.04101652939099896 0  0.96 0.04101652939099896 0  0.98 0.04101652939099896 0  1 0.04101652939099896 0  0 0.05705811164099547 0  0.02 0.05705811164099547 0  0.04 0.05705811164099547 0  0.06 0.05705811164099547 0  0.08 0.05705811164099547 0  0.1 0.05705811164099547 0  0.12 0.05705811164099547 0  0.14 0.05705811164099547 0  0.16 0.05705811164099547 0  0.18 0.05705811164099547 0  0.2 0.05705811164099547 0  0.22 0.05705811164099547 0  0.24 0.05705811164099547 0  0.26 0.05705811164099547 0  0.28 0.05705811164099547 0  0.3 0.05705811164099547 0  0.32 0.05705811164099547 0  0.34 0.05705811164099547 0  0.36 0.05705811164099547 0  0.38 0.05705811164099547 0  0.4 0.05705811164099547 0  0.42 0.05705811164099547 0  0.44 0.05705811164099547 0  0.46 0.05705811164099547 0  0.48 0.05705811164099547 0  0.5 0.05705811164099547 0  0.52 0.05705811164099547 0  0.54 0.05705811164099547 0  0.5600000000000001 0.05705811164099547 0  0.58 0.05705811164099547 0  0.6 0.05705811164099547 0  0.62 0.05705811164099547 0  0.64 0.05705811164099547 0  0.66 0.05705811164099547 0  0.68 0.05705811164099547 0  0.7 0.05705811164099547 0  0.72 0.05705811164099547 0  0.74 0.05705811164099547 0  0.76 0.05705811164099547 0  0.78 0.05705811164099547 0  0.8 0.05705811164099547 0  0.82 0.05705811164099547 0  0.84 0.05705811164099547 0  0.86 0.05705811164099547 0  0.88 0.05705811164099547 0  0.9 0.05705811164099547 0  0.92 0.05705811164099547 0  0.9399999999999999 0.05705811164099547 0  0.96 0.05705811164099547 0  0.98 0.05705811164099547 0  1 0.05705811164099547 0  0 0.07667714377545 0  0.02 0.07667714377545 0  0.04 0.07667714377545 0  0.06 0.07667714377545 0  0.08 0.07667714377545 0  0.1 0.07667714377545 0  0.12 0.07667714377545 0  0.14 0.07667714377545 0  0.16 0.07667714377545 0  0.18 0.07667714377545 0  0.2 0.07667714377545 0  0.22 0.07667714377545 0  0.24 0.07667714377545 0  0.26 0.07667714377545 0  0.28 0.07667714377545 0  0.3 0.07667714377545 0  0.32 0.07667714377545 0  0.34 0.07667714377545 0  0.36 0.07667714377545 0  0.38 0.07667714377545 0  0.4 0.07667714377545 0  0.42 0.07667714377545 0  0.44 0.07667714377545 0  0.46 0.07667714377545 0  0.48 0.07667714377545 0  0.5 0.07667714377545 0  0.52 0.07667714377545 0  0.54 0.07667714377545 0  0.5600000000000001 0.07667714377545 0  0.58 0.07667714377545 0  0.6 0.07667714377545 0  0.62 0.07667714377545 0  0.64 0.07667714377545 0  0.66 0.07667714377545 0  0.68 0.07667714377545 0  0.7 0.07667714377545 0  0.72 0.07667714377545 0  0.74 0.07667714377545 0  0.76 0.07667714377545 0  0.78 0.07667714377545 0  0.8 0.07667714377545 0  0.82 0.07667714377545 0  0.84 0.07667714377545 0  0.86 0.07667714377545 0  0.88 0.07667714377545 0  0.9 0.07667714377545 0  0.92 0.07667714377545 0  0.9399999999999999 0.07667714377545 0  0.96 0.07667714377545 0  0.98 0.07667714377545 0  1 0.07667714377545 0  0 0.1098730133816912 0  0.02 0.1098730133816912 0  0.04 0.1098730133816912 0  0.06 0.1098730133816912 0  0.08 0.1098730133816912 0  0.1 0.1098730133816912 0  0.12 0.1098730133816912 0  0.14 0.1098730133816912 0  0.16 0.1098730133816912 0  0.18 0.1098730133816912 0  0.2 0.1098730133816912 0  0.22 0.1098730133816912 0  0.24 0.1098730133816912 0  0.26 0.1098730133816912 0  0.28 0.1098730133816912 0  0.3 0.1098730133816912 0  0.32 0.1098730133816912 0  0.34 0.1098730133816912 0  0.36 0.1098730133816912 0  0.38 0.1098730133816912 0  0.4 0.1098730133816912 0  0.42 0.1098730133816912 0  0.44 0.1098730133816912 0  0.46 0.1098730133816912 0  0.48 0.1098730133816912 0  0.5 0.1098730133816912 0  0.52 0.1098730133816912 0  0.54 0.1098730133816912 0  0.5600000000000001 0.1098730133816912 0  0.58 0.1098730133816912 0  0.6 0.1098730133816912 0  0.62 0.1098730133816912 0  0.64 0.1098730133816912 0  0.66 0.1098730133816912 0  0.68 0.1098730133816912 0  0.7 0.1098730133816912 0  0.72 0.1098730133816912 0  0.74 0.1098730133816912 0  0.76 0.1098730133816912 0  0.78 0.1098730133816912 0  0.8 0.1098730133816912 0  0.82 0.1098730133816912 0  0.84 0.1098730133816912 0  0.86 0.1098730133816912 0  0.88 0.1098730133816912 0  0.9 0.1098730133816912 0  0.92 0.1098730133816912 0  0.9399999999999999 0.1098730133816912 0  0.96 0.1098730133816912 0  0.98 0.1098730133816912 0  1 0.1098730133816912 0  0 0.1603283563168221 0  0.02 0.1603283563168221 0  0.04 0.1603283563168221 0  0.06 0.1603283563168221 0  0.08 0.1603283563168221 0  0.1 0.1603283563168221 0  0.12 0.1603283563168221 0  0.14 0.1603283563168221 0  0.16 0.1603283563168221 0  0.18 0.1603283563168221 0  0.2 0.1603283563168221 0  0.22 0.1603283563168221 0  0.24 0.1603283563168221 0  0.26 0.1603283563168221 0  0.28 0.1603283563168221 0  0.3 0.1603283563168221 0  0.32 0.1603283563168221 0  0.34 0.1603283563168221 0  0.36 0.1603283563168221 0  0.38 0.1603283563168221 0  0.4 0.1603283563168221 0  0.42 0.1603283563168221 0  0.44 0.1603283563168221 0  0.46 0.1603283563168221 0  0.48 0.1603283563168221 0  0.5 0.1603283563168221 0  0.52 0.1603283563168221 0  0.54 0.1603283563168221 0  0.5600000000000001 0.1603283563168221 0  0.58 0.1603283563168221 0 
[...]
<PointData  Vectors="u_paraw"> 
<DataArray  type="Float64"  Name="u_paraw"  NumberOfComponents="3" format="ascii">1.3595470450129910e-05 1.4486119926315159e-05 0.0000000000000000e+00  1.3595470440010624e-05 1.4486119912014532e-05 0.0000000000000000e+00  1.3595470446333112e-05 1.4486119925165904e-05 0.0000000000000000e+00  1.3595470442090609e-05 1.4486119910995379e-05 0.0000000000000000e+00  1.3595470451714660e-05 1.4486119909076341e-05 0.0000000000000000e+00  1.3595470442387746e-05 1.4486119917066921e-05 0.0000000000000000e+00  1.3595470440538873e-05 1.4486119911049579e-05 0.0000000000000000e+00  1.3595470440010623e-05 1.4486119920915839e-05 0.0000000000000000e+00  1.3595470439597928e-05 1.4486119918021019e-05 0.0000000000000000e+00  1.3595470435487484e-05 1.4486119902419329e-05 0.0000000000000000e+00  1.3595470457343819e-05 1.4486119927995679e-05 0.0000000000000000e+00  1.3595470447736275e-05 1.4486119915895983e-05 0.0000000000000000e+00  1.3595470446646760e-05 1.4486119921924126e-05 0.0000000000000000e+00  1.3595470440175701e-05 1.4486119908772754e-05 0.0000000000000000e+00  1.3595470453580038e-05 1.4486119913098761e-05 0.0000000000000000e+00  1.3595470449915306e-05 1.4486119908458335e-05 0.0000000000000000e+00  1.3595470454273367e-05 1.4486119922986644e-05 0.0000000000000000e+00  1.3595470444896932e-05 1.4486119911483300e-05 0.0000000000000000e+00  1.3595470451037836e-05 1.4486119913250509e-05 0.0000000000000000e+00  1.3595470449981337e-05 1.4486119907786130e-05 0.0000000000000000e+00  1.3595470446135018e-05 1.4486119922130165e-05 0.0000000000000000e+00  1.3595470451169899e-05 1.4486119904620260e-05 0.0000000000000000e+00  1.3595470461767909e-05 1.4486119930521850e-05 0.0000000000000000e+00  1.3595470445771846e-05 1.4486119918812507e-05 0.0000000000000000e+00  1.3595470452374969e-05 1.4486119913825136e-05 0.0000000000000000e+00  1.3595470448677220e-05 1.4486119919929194e-05 0.0000000000000000e+00  1.3595470447323580e-05 1.4486119908686018e-05 0.0000000000000000e+00  1.3595470432516079e-05 1.4486119920200245e-05 0.0000000000000000e+00  1.3595470448644204e-05 1.4486119919029386e-05 0.0000000000000000e+00  1.3595470455527960e-05 1.4486119921349499e-05 0.0000000000000000e+00  1.3595470439267771e-05 1.4486119910247269e-05 0.0000000000000000e+00  1.3595470453134328e-05 1.4486119922000020e-05 0.0000000000000000e+00  1.3595470439647451e-05 1.4486119908230653e-05 0.0000000000000000e+00  1.3595470442090605e-05 1.4486119910919474e-05 0.0000000000000000e+00  1.3595470437319850e-05 1.4486119913966162e-05 0.0000000000000000e+00  1.3595470451401008e-05 1.4486119913597454e-05 0.0000000000000000e+00  1.3595470447257549e-05 1.4486119918053525e-05 0.0000000000000000e+00  1.3595470442668380e-05 1.4486119932202363e-05 0.0000000000000000e+00  1.3595470456039701e-05 1.4486119904089001e-05 0.0000000000000000e+00  1.3595470445656292e-05 1.4486119914605762e-05 0.0000000000000000e+00  1.3595470427679292e-05 1.4486119905216650e-05 0.0000000000000000e+00  1.3595470452407985e-05 1.4486119917869210e-05 0.0000000000000000e+00  1.3595470437749053e-05 1.4486119898982408e-05 0.0000000000000000e+00  1.3595470451252437e-05 1.4486119928364287e-05 0.0000000000000000e+00  1.3595470447719768e-05 1.4486119905390043e-05 0.0000000000000000e+00  1.3595470446564222e-05 1.4486119915505649e-05 0.0000000000000000e+00  1.3595470451516562e-05 1.4486119918780020e-05 0.0000000000000000e+00  1.3595470443229644e-05 1.4486119911830204e-05 0.0000000000000000e+00  1.3595470456881600e-05 1.4486119928429339e-05 0.0000000000000000e+00  1.3595470451285453e-05 1.4486119920644768e-05 0.0000000000000000e+00  1.3595470450129907e-05 1.8035597858296029e-15 0.0000000000000000e+00  4.8596226193475770e-07 -3.1942047419885369e-04 0.0000000000000000e+00  4.8596226244834025e-07 -3.1942047419761770e-04 0.0000000000000000e+00  4.8596227095455046e-07 -3.1942047419126438e-04 0.0000000000000000e+00  4.8596226909281397e-07 -3.1942047419553603e-04 0.0000000000000000e+00  4.8596227105084720e-07 -3.1942047419809475e-04 0.0000000000000000e+00  4.8596226941380303e-07 -3.1942047418575674e-04 0.0000000000000000e+00  4.8596226228784582e-07 -3.1942047420360228e-04 0.0000000000000000e+00  4.8596227182122102e-07 -3.1942047420329913e-04 0.0000000000000000e+00  4.8596225785819671e-07 -3.1942047419959116e-04 0.0000000000000000e+00  4.8596226540143973e-07 -3.1942047419640317e-04 0.0000000000000000e+00  4.8596226938170409e-07 -3.1942047420976098e-04 0.0000000000000000e+00  4.8596227117924289e-07 -3.1942047419995979e-04 0.0000000000000000e+00  4.8596227243110020e-07 -3.1942047420555384e-04 0.0000000000000000e+00  4.8596225779399892e-07 -3.1942047421255779e-04 0.0000000000000000e+00  4.8596226745576970e-07 -3.1942047419772677e-04 0.0000000000000000e+00  4.8596225907795518e-07 -3.1942047420815593e-04 0.0000000000000000e+00  4.8596227692494710e-07 -3.1942047420542374e-04 0.0000000000000000e+00  4.8596227069775929e-07 -3.1942047420052401e-04 0.0000000000000000e+00  4.8596227740643070e-07 -3.1942047419026659e-04 0.0000000000000000e+00  4.8596227345826518e-07 -3.1942047420145556e-04 0.0000000000000000e+00  4.8596226886812165e-07 -3.1942047418887968e-04 0.0000000000000000e+00  4.8596226742367086e-07 -3.1942047421034601e-04 0.0000000000000000e+00  4.8596228796697088e-07 -3.1942047419204468e-04 0.0000000000000000e+00  4.8596226642860471e-07 -3.1942047419067945e-04 0.0000000000000000e+00  4.8596227535210073e-07 -3.1942047420232292e-04 0.0000000000000000e+00  4.8596226838663805e-07 -3.1942047419410467e-04 0.0000000000000000e+00  4.8596226642860471e-07 -3.1942047420327702e-04 0.0000000000000000e+00  4.8596227349036413e-07 -3.1942047418042203e-04 0.0000000000000000e+00  4.8596226655700030e-07 -3.1942047419304394e-04 0.0000000000000000e+00  4.8596227548049631e-07 -3.1942047420308186e-04 0.0000000000000000e+00  4.8596226819404457e-07 -3.1942047419811621e-04 0.0000000000000000e+00  4.8596226739157191e-07 -3.1942047420288670e-04 0.0000000000000000e+00  4.8596226353970313e-07 -3.1942047420006778e-04 0.0000000000000000e+00  4.8596227037677023e-07 -3.1942047419774758e-04 0.0000000000000000e+00  4.8596227066566034e-07 -3.1942047419696875e-04 0.0000000000000000e+00  4.8596226809774783e-07 -3.1942047419078701e-04 0.0000000000000000e+00  4.8596226877182491e-07 -3.1942047420269155e-04 0.0000000000000000e+00  4.8596227631506792e-07 -3.1942047418497568e-04 0.0000000000000000e+00  4.8596226376439546e-07 -3.1942047421292642e-04 0.0000000000000000e+00  4.8596226931750629e-07 -3.1942047419701033e-04 0.0000000000000000e+00  4.8596226742367086e-07 -3.1942047420176092e-04 0.0000000000000000e+00  4.8596227689284815e-07 -3.1942047418592978e-04 0.0000000000000000e+00  4.8596225859647158e-07 -3.1942047421214579e-04 0.0000000000000000e+00  4.8596228331262945e-07 -3.1942047419113395e-04 0.0000000000000000e+00  4.8596226392488999e-07 -3.1942047420670309e-04 0.0000000000000000e+00  4.8596227676445257e-07 -3.1942047419525392e-04 0.0000000000000000e+00  4.8596226341130755e-07 -3.1942047419670854e-04 0.0000000000000000e+00  4.8596226646070366e-07 -3.1942047421437925e-04 0.0000000000000000e+00  4.8596228206077214e-07 -3.1942047419525392e-04 0.0000000000000000e+00  4.8596226909281397e-07 -3.1942047419768253e-04 0.0000000000000000e+00  4.8596226193475781e-07 -2.4751700901647059e-05 0.0000000000000000e+00  -1.2374346972028458e-05 -6.8375093907678368e-04 0.0000000000000000e+00  -1.2374346969915905e-05 -6.8375093906372988e-04 0.0000000000000000e+00  -1.2374346965087212e-05 -6.8375093906459735e-04 0.0000000000000000e+00  -1.2374346962914300e-05 -6.8375093906390314e-04 0.0000000000000000e+00  -1.2374346974080651e-05 -6.8375093906433682e-04 0.0000000000000000e+00  -1.2374346969915905e-05 -6.8375093907253404e-04 0.0000000000000000e+00  -1.2374346973537423e-05 -6.8375093907439789e-04 0.0000000000000000e+00  -1.2374346970036621e-05 -6.8375093906559515e-04 0.0000000000000000e+00  -1.2374346975046390e-05 -6.8375093906715640e-04 0.0000000000000000e+00  -1.2374346959715292e-05 -6.8375093906151757e-04 0.0000000000000000e+00  -1.2374346979392213e-05 -6.8375093906958501e-04 0.0000000000000000e+00  -1.2374346964543985e-05 -6.8375093907665401e-04 0.0000000000000000e+00  -1.2374346958447760e-05 -6.8375093907136213e-04 0.0000000000000000e+00  -1.2374346973295988e-05 -6.8375093907153560e-04 0.0000000000000000e+00  -1.2374346953739785e-05 -6.8375093906455507e-04 0.0000000000000000e+00  -1.2374346962974660e-05 -6.8375093908090310e-04 0.0000000000000000e+00  -1.2374346959413499e-05 -6.8375093906555080e-04 0.0000000000000000e+00  -1.2374346978245398e-05 -6.8375093908454776e-04 0.0000000000000000e+00  -1.2374346957119870e-05 -6.8375093905705066e-04 0.0000000000000000e+00  -1.2374346969915905e-05 -6.8375093907504841e-04 0.0000000000000000e+00  -1.2374346953920862e-05 -6.8375093905514420e-04 0.0000000000000000e+00  -1.2374346977822888e-05 -6.8375093905934917e-04 0.0000000000000000e+00  -1.2374346966052950e-05 -6.8375093908181383e-04 0.0000000000000000e+00  -1.2374346958447760e-05 -6.8375093907513688e-04 0.0000000000000000e+00  -1.2374346970942001e-05 -6.8375093906546407e-04 0.0000000000000000e+00  -1.2374346967380840e-05 -6.8375093906407629e-04 0.0000000000000000e+00  -1.2374346967320483e-05 -6.8375093906359924e-04 0.0000000000000000e+00  -1.2374346959594575e-05 -6.8375093905570625e-04 0.0000000000000000e+00  -1.2374346975046390e-05 -6.8375093906655195e-04 0.0000000000000000e+00  -1.2374346975649976e-05 -6.8375093906971414e-04 0.0000000000000000e+00  -1.2374346969131243e-05 -6.8375093907331369e-04 0.0000000000000000e+00  -1.2374346967561917e-05 -6.8375093906737226e-04 0.0000000000000000e+00  -1.2374346975649976e-05 -6.8375093907370400e-04 0.0000000000000000e+00  -1.2374346966535820e-05 -6.8375093906698195e-04 0.0000000000000000e+00  -1.2374346979392213e-05 -6.8375093906282230e-04 0.0000000000000000e+00  -1.2374346973416706e-05 -6.8375093907274990e-04 0.0000000000000000e+00  -1.2374346970459133e-05 -6.8375093906936719e-04 0.0000000000000000e+00  -1.2374346964121473e-05 -6.8375093907144886e-04 0.0000000000000000e+00  -1.2374346971726663e-05 -6.8375093906281861e-04 0.0000000000000000e+00  -1.2374346958508120e-05 -6.8375093906889014e-04 0.0000000000000000e+00  -1.2374346972813120e-05 -6.8375093905848549e-04 0.0000000000000000e+00  -1.2374346976193204e-05 -6.8375093908033932e-04 0.0000000000000000e+00  -1.2374346971424871e-05 -6.8375093906958403e-04 0.0000000000000000e+00  -1.2374346960499955e-05 -6.8375093906472681e-04 0.0000000000000000e+00  -1.2374346974141010e-05 -6.8375093906893351e-04 0.0000000000000000e+00  -1.2374346962431432e-05 -6.8375093907257643e-04 0.0000000000000000e+00  -1.2374346971907740e-05 -6.8375093906663869e-04 0.0000000000000000e+00  -1.2374346975468901e-05 -6.8375093906446660e-04 0.0000000000000000e+00  -1.2374346959775650e-05 -6.8375093907509178e-04 0.0000000000000000e+00  -1.2374346960017085e-05 -6.8375093906706869e-04 0.0000000000000000e+00  -1.2374346972028458e-05 -6.1696460952186431e-04 0.0000000000000000e+00  -4.3875564403964201e-05 -6.0342759721603023e-04 0.0000000000000000e+00  -4.3875564406451401e-05 -6.0342759724300518e-04 0.0000000000000000e+00  -4.3875564408506046e-05 -6.0342759723736744e-04 0.0000000000000000e+00  -4.3875564408181625e-05 -6.0342759722921402e-04 0.0000000000000000e+00  -4.3875564397043291e-05 -6.0342759723476514e-04 0.0000000000000000e+00  -4.3875564385472394e-05 -6.0342759722305619e-04 0.0000000000000000e+00  -4.3875564411750222e-05 -6.0342759722583099e-04 0.0000000000000000e+00  -4.3875564399854905e-05 -6.0342759723146960e-04 0.0000000000000000e+00  -4.3875564396502593e-05 -6.0342759720891819e-04 0.0000000000000000e+00  -4.3875564418346712e-05 -6.0342759725974483e-04 0.0000000000000000e+00  -4.3875564400828159e-05 -6.0342759723780134e-04 0.0000000000000000e+00  -4.3875564385580536e-05 -6.0342759721897959e-04 0.0000000000000000e+00  -4.3875564414237423e-05 -6.0342759724343843e-04 0.0000000000000000e+00  -4.3875564398989800e-05 -6.0342759722452994e-04 0.0000000000000000e+00  -4.3875564395853759e-05 -6.0342759722244990e-04 0.0000000000000000e+00  -4.3875564416724623e-05 -6.0342759724656093e-04 0.0000000000000000e+00  -4.3875564399097935e-05 -6.0342759724092308e-04 0.0000000000000000e+00  -4.3875564396394450e-05 -6.0342759721663858e-04 0.0000000000000000e+00  -4.3875564390771222e-05 -6.0342759721707063e-04 0.0000000000000000e+00  -4.3875564403099089e-05 -6.0342759722505036e-04 0.0000000000000000e+00  -4.3875564394988640e-05 -6.0342759723945019e-04 0.0000000000000000e+00  -4.3875564407100235e-05 -6.0342759723294335e-04 0.0000000000000000e+00  -4.3875564406559537e-05 -6.0342759722982085e-04 0.0000000000000000e+00  -4.3875564402882804e-05 -6.0342759721776615e-04 0.0000000000000000e+00  -4.3875564404937448e-05 -6.0342759724716808e-04 0.0000000000000000e+00  -4.3875564398449101e-05 -6.0342759723363724e-04 0.0000000000000000e+00  -4.3875564405370011e-05 -6.0342759720839701e-04 0.0000000000000000e+00  -4.3875564401152580e-05 -6.0342759722600446e-04 0.0000000000000000e+00  -4.3875564414453701e-05 -6.0342759723997223e-04 0.0000000000000000e+00  -4.3875564404180479e-05 -6.0342759722513710e-04 0.0000000000000000e+00  -4.3875564411317660e-05 -6.0342759724387211e-04 0.0000000000000000e+00  -4.3875564396394457e-05 -6.0342759723034127e-04 0.0000000000000000e+00  -4.3875564406235123e-05 -6.0342759722591772e-04 0.0000000000000000e+00  -4.3875564406559537e-05 -6.0342759724361190e-04 0.0000000000000000e+00  -4.3875564400936302e-05 -6.0342759722982410e-04 0.0000000000000000e+00  -4.3875564407208378e-05 -6.0342759723146884e-04 0.0000000000000000e+00  -4.3875564403207224e-05 -6.0342759722505036e-04 0.0000000000000000e+00  -4.3875564404396757e-05 -6.0342759723675974e-04 0.0000000000000000e+00  -4.3875564402450248e-05 -6.0342759723042800e-04 0.0000000000000000e+00  -4.3875564405045591e-05 -6.0342759723355050e-04 0.0000000000000000e+00  -4.3875564398232823e-05 -6.0342759721516569e-04 0.0000000000000000e+00  -4.3875564415318813e-05 -6.0342759723303009e-04 0.0000000000000000e+00  -4.3875564385796814e-05 -6.0342759721707063e-04 0.0000000000000000e+00  -4.3875564394556091e-05 -6.0342759722704529e-04 0.0000000000000000e+00  -4.3875564387418903e-05 -6.0342759722539730e-04 0.0000000000000000e+00  -4.3875564411101382e-05 -6.0342759725037732e-04 0.0000000000000000e+00  -4.3875564390771222e-05 -6.0342759724309474e-04 0.0000000000000000e+00  -4.3875564396718877e-05 -6.0342759722895349e-04 0.0000000000000000e+00  -4.3875564400720024e-05 -6.0342759723164231e-04 0.0000000000000000e+00  -4.3875564401368858e-05 -6.0342759722452994e-04 0.0000000000000000e+00  -4.3875564403964201e-05 -6.9890088500005004e-04 0.0000000000000000e+00  1.7255434680077357e-04 4.2051736724784880e-04 0.0000000000000000e+00  1.7255434680227670e-04 4.2051736725669589e-04 0.0000000000000000e+00  1.7255434680095043e-04 4.2051736724385916e-04 0.0000000000000000e+00  1.7255434679573360e-04 4.2051736722868011e-04 0.0000000000000000e+00  1.7255434680926192e-04 4.2051736726059902e-04 0.0000000000000000e+00  1.7255434678574208e-04 4.2051736725244615e-04 0.0000000000000000e+00  1.7255434677858003e-04 4.2051736724810879e-04 0.0000000000000000e+00  1.7255434679184310e-04 4.2051736725990546e-04 0.0000000000000000e+00  1.7255434677575056e-04 4.2051736724169086e-04 0.0000000000000000e+00  1.7255434678574208e-04 4.2051736725877734e-04 0.0000000000000000e+00  1.7255434678901363e-04 4.2051736725426760e-04 0.0000000000000000e+00  1.7255434678627261e-04 4.2051736725331351e-04 0.0000000000000000e+00  1.7255434677318637e-04 4.2051736722677170e-04 0.0000000000000000e+00  1.7255434678910205e-04 4.2051736724446588e-04 0.0000000000000000e+00  1.7255434679104730e-04 4.2051736723822201e-04 0.0000000000000000e+00  1.7255434679255046e-04 4.2051736724351178e-04 0.0000000000000000e+00  1.7255434680519459e-04 4.2051736724828227e-04 0.0000000000000000e+00  1.7255434679520307e-04 4.2051736724854361e-04 0.0000000000000000e+00  1.7255434679493779e-04 4.2051736725313949e-04 0.0000000000000000e+00  1.7255434678786416e-04 4.2051736723969539e-04 0.0000000000000000e+00  1.7255434679794410e-04 4.2051736725192632e-04 0.0000000000000000e+00  1.7255434679290413e-04 4.2051736724706796e-04 0.0000000000000000e+00  1.7255434679025152e-04 4.2051736723787393e-04 0.0000000000000000e+00  1.7255434679820937e-04 4.2051736724715583e-04 0.0000000000000000e+00  1.7255434679529149e-04 4.2051736725279255e-04 0.0000000000000000e+00  1.7255434680077357e-04 4.2051736726831832e-04 0.0000000000000000e+00  1.7255434679644096e-04 4.2051736724515976e-04 0.0000000000000000e+00  1.7255434681315242e-04 4.2051736725279255e-04 0.0000000000000000e+00  1.7255434680917350e-04 4.2051736725600406e-04 0.0000000000000000e+00  1.7255434680793562e-04 4.2051736724906289e-04 0.0000000000000000e+00  1.7255434679201993e-04 4.2051736726398151e-04 0.0000000000000000e+00  1.7255434679794410e-04 4.2051736724021580e-04 0.0000000000000000e+00  1.7255434679140099e-04 4.2051736724195053e-04 0.0000000000000000e+00  1.7255434679918198e-04 4.2051736724394546e-04 0.0000000000000000e+00  1.7255434680386826e-04 4.2051736725652448e-04 0.0000000000000000e+00  1.7255434680218829e-04 4.2051736724750164e-04 0.0000000000000000e+00  1.7255434680324934e-04 4.2051736725964471e-04 0.0000000000000000e+00  1.7255434679679463e-04 4.2051736723995559e-04 0.0000000000000000e+00  1.7255434679511465e-04 4.2051736725357317e-04 0.0000000000000000e+00  1.7255434679396518e-04 4.2051736724351178e-04 0.0000000000000000e+00  1.7255434680280723e-04 4.2051736725418260e-04 0.0000000000000000e+00  1.7255434680422195e-04 4.2051736727430312e-04 0.0000000000000000e+00  1.7255434679493779e-04 4.2051736725825693e-04 0.0000000000000000e+00  1.7255434679909357e-04 4.2051736724394546e-04 0.0000000000000000e+00  1.7255434680784720e-04 4.2051736727013978e-04 0.0000000000000000e+00  1.7255434680059671e-04 4.2051736724776185e-04 0.0000000000000000e+00  1.7255434680086198e-04 4.2051736726493789e-04 0.0000000000000000e+00  1.7255434680802403e-04 4.2051736725079762e-04 0.0000000000000000e+00  1.7255434681297558e-04 4.2051736726259374e-04 0.0000000000000000e+00  1.7255434680077357e-04 4.2051736725955797e-04 0.0000000000000000e+00  1.7255434680077357e-04 -2.9741447386943682e-04 0.0000000000000000e+00  -4.3867644942142373e-04 -2.3539087973442271e-03 0.0000000000000000e+00  -4.3867644944232660e-04 -2.3539087973669520e-03 0.0000000000000000e+00  -4.3867644943971373e-04 -2.3539087973456154e-03 0.0000000000000000e+00  -4.3867644945089679e-04 -2.3539087973638291e-03 0.0000000000000000e+00  -4.3867644945497285e-04 -2.3539087973523799e-03 0.0000000000000000e+00  -4.3867644946511073e-04 -2.3539087973813515e-03 0.0000000000000000e+00  -4.3867644944807483e-04 -2.3539087973456128e-03 0.0000000000000000e+00  -4.3867644944776133e-04 -2.3539087973692085e-03 0.0000000000000000e+00  -4.3867644943114355e-04 -2.3539087973192484e-03 0.0000000000000000e+00  -4.3867644943804146e-04 -2.3539087973952258e-03 0.0000000000000000e+00  -4.3867644942435010e-04 -2.3539087973530755e-03 0.0000000000000000e+00  -4.3867644944420786e-04 -2.3539087973917599e-03 0.0000000000000000e+00  -4.3867644943312926e-04 -2.3539087974203793e-03 0.0000000000000000e+00  -4.3867644941745213e-04 -2.3539087973247961e-03 0.0000000000000000e+00  -4.3867644944588002e-04 -2.3539087973862118e-03 0.0000000000000000e+00  -4.3867644943333830e-04 -2.3539087973688580e-03 0.0000000000000000e+00  -4.3867644943166608e-04 -2.3539087973416229e-03 0.0000000000000000e+00  -4.3867644944284913e-04 -2.3539087973459662e-03 0.0000000000000000e+00  -4.3867644944284913e-04 -2.3539087973641743e-03 0.0000000000000000e+00  -4.3867644943772791e-04 -2.3539087973216736e-03 0.0000000000000000e+00  -4.3867644944985156e-04 -2.3539087973503030e-03 0.0000000000000000e+00  -4.3867644945079222e-04 -2.3539087973839501e-03 0.0000000000000000e+00  -4.3867644944619357e-04 -2.3539087973435311e-03 0.0000000000000000e+00  -4.3867644945612242e-04 -2.3539087973771912e-03 0.0000000000000000e+00  -4.3867644944682068e-04 -2.3539087973468271e-03 0.00