<?xml version="1.0"?>
<VTKFile type="UnstructuredGrid"  version="0.1"  >
<UnstructuredGrid>
<Piece  NumberOfPoints="2601" NumberOfCells="5000">
<Points>
<DataArray  type="Float64"  NumberOfComponents="3"  format="ascii">0 0 0  0.02 0 0  0.04 0 0  0.06 0 0  0.08 0 0  0.1 0 0  0.12 0 0  0.14 0 0  0.16 0 0  0.18 0 0  0.2 0 0  0.22 0 0  0.24 0 0  0.26 0 0  0.28 0 0  0.3 0 0  0.32 0 0  0.34 0 0  0.36 0 0  0.38 0 0  0.4 0 0  0.42 0 0  0.44 0 0  0.46 0 0  0.48 0 0  0.5 0 0  0.52 0 0  0.54 0 0  0.5600000000000001 0 0  0.58 0 0  0.6 0 0  0.62 0 0  0.64 0 0  0.66 0 0  0.68 0 0  0.7 0 0  0.72 0 0  0.74 0 0  0.76 0 0  0.78 0 0  0.8 0 0  0.82 0 0  0.84 0 0  0.86 0 0  0.88 0 0  0.9 0 0  0.92 0 0  0.9399999999999999 0 0  0.96 0 0  0.98 0 0  1 0 0  0 0.01313563088723984 0  0.02 0.01313563088723984 0  0.04 0.01313563088723984 0  0.06 0.01313563088723984 0  0.08 0.01313563088723984 0  0.1 0.01313563088723984 0  0.12 0.01313563088723984 0  0.14 0.01313563088723984 0  0.16 0.01313563088723984 0  0.18 0.01313563088723984 0  0.2 0.01313563088723984 0  0.22 0.01313563088723984 0  0.24 0.01313563088723984 0  0.26 0.01313563088723984 0  0.28 0.01313563088723984 0  0.3 0.01313563088723984 0  0.32 0.01313563088723984 0  0.34 0.01313563088723984 0  0.36 0.01313563088723984 0  0.38 0.01313563088723984 0  0.4 0.01313563088723984 0  0.42 0.01313563088723984 0  0.44 0.01313563088723984 0  0.46 0.01313563088723984 0  0.48 0.01313563088723984 0  0.5 0.01313563088723984 0  0.52 0.01313563088723984 0  0.54 0.01313563088723984 0  0.5600000000000001 0.01313563088723984 0  0.58 0.01313563088723984 0  0.6 0.01313563088723984 0  0.62 0.01313563088723984 0  0.64 0.01313563088723984 0  0.66 0.01313563088723984 0  0.68 0.01313563088723984 0  0.7 0.01313563088723984 0  0.72 0.01313563088723984 0  0.74 0.01313563088723984 0  0.76 0.01313563088723984 0  0.78 0.01313563088723984 0  0.8 0.01313563088723984 0  0.82 0.01313563088723984 0  0.84 0.01313563088723984 0  0.86 0.01313563088723984 0  0.88 0.01313563088723984 0  0.9 0.01313563088723984 0  0.92 0.01313563088723984 0  0.9399999999999999 0.01313563088723984 0  0.96 0.01313563088723984 0  0.98 0.01313563088723984 0  1 0.01313563088723984 0  0 0.02664639863733726 0  0.02 0.02664639863733726 0  0.04 0.02664639863733726 0  0.06 0.02664639863733726 0  0.08 0.02664639863733726 0  0.1 0.02664639863733726 0  0.12 0.02664639863733726 0  0.14 0.02664639863733726 0  0.16 0.02664639863733726 0  0.18 0.02664639863733726 0  0.2 0.02664639863733726 0  0.22 0.02664639863733726 0  0.24 0.02664639863733726 0  0.26 0.02664639863733726 0  0.28 0.02664639863733726 0  0.3 0.02664639863733726 0  0.32 0.02664639863733726 0  0.34 0.02664639863733726 0  0.36 0.02664639863733726 0  0.38 0.02664639863733726 0  0.4 0.02664639863733726 0  0.42 0.02664639863733726 0  0.44 0.02664639863733726 0  0.46 0.02664639863733726 0  0.48 0.02664639863733726 0  0.5 0.02664639863733726 0  0.52 0.02664639863733726 0  0.54 0.02664639863733726 0  0.5600000000000001 0.02664639863733726 0  0.58 0.02664639863733726 0  0.6 0.02664639863733726 0  0.62 0.02664639863733726 0  0.64 0.02664639863733726 0  0.66 0.02664639863733726 0  0.68 0.02664639863733726 0  0.7 0.02664639863733726 0  0.72 0.02664639863733726 0  0.74 0.02664639863733726 0  0.76 0.02664639863733726 0  0.78 0.02664639863733726 0  0.8 0.02664639863733726 0  0.82 0.02664639863733726 0  0.84 0.02664639863733726 0  0.86 0.02664639863733726 0  0.88 0.02664639863733726 0  0.9 0.02664639863733726 0  0.92 0.02664639863733726 0  0.9399999999999999 0.02664639863733726 0  0.96 0.02664639863733726 0  0.98 0.02664639863733726 0  1 0.02664639863733726 0  0 0.04101652939099896 0  0.02 0.04101652939099896 0  0.04 0.04101652939099896 0  0.06 0.04101652939099896 0  0.08 0.04101652939099896 0  0.1 0.04101652939099896 0  0.12 0.04101652939099896 0  0.14 0.04101652939099896 0  0.16 0.04101652939099896 0  0.18 0.04101652939099896 0  0.2 0.04101652939099896 0  0.22 0.04101652939099896 0  0.24 0.04101652939099896 0  0.26 0.04101652939099896 0  0.28 0.04101652939099896 0  0.3 0.04101652939099896 0  0.32 0.04101652939099896 0  0.34 0.04101652939099896 0  0.36 0.04101652939099896 0  0.38 0.04101652939099896 0  0.4 0.04101652939099896 0  0.42 0.04101652939099896 0  0.44 0.04101652939099896 0  0.46 0.04101652939099896 0  0.48 0.04101652939099896 0  0.5 0.04101652939099896 0  0.52 0.04101652939099896 0  0.54 0.04101652939099896 0  0.5600000000000001 0.04101652939099896 0  0.58 0.04101652939099896 0  0.6 0.04101652939099896 0  0.62 0.04101652939099896 0  0.64 0.04101652939099896 0  0.66 0.04101652939099896 0  0.68 0.04101652939099896 0  0.7 0.04101652939099896 0  0.72 0.04101652939099896 0  0.74 0.04101652939099896 0  0.76 0.04101652939099896 0  0.78 0.04101652939099896 0  0.8 0.04101652939099896 0  0.82 0.04101652939099896 0  0.84 0.04101652939099896 0  0.86 0.04101652939099896 0  0.88 0.04101652939099896 0  0.9 0.04101652939099896 0  0.92 0.04101652939099896 0  0.9399999999999999 0.04101652939099896 0  0.96 0.04101652939099896 0  0.98 0.04101652939099896 0  1 0.04101652939099896 0  0 0.05705811164099547 0  0.02 0.05705811164099547 0  0.04 0.05705811164099547 0  0.06 0.05705811164099547 0  0.08 0.05705811164099547 0  0.1 0.05705811164099547 0  0.12 0.05705811164099547 0  0.14 0.05705811164099547 0  0.16 0.05705811164099547 0  0.18 0.05705811164099547 0  0.2 0.05705811164099547 0  0.22 0.05705811164099547 0  0.24 0.05705811164099547 0  0.26 0.05705811164099547 0  0.28 0.05705811164099547 0  0.3 0.05705811164099547 0  0.32 0.05705811164099547 0  0.34 0.05705811164099547 0  0.36 0.05705811164099547 0  0.38 0.05705811164099547 0  0.4 0.05705811164099547 0  0.42 0.05705811164099547 0  0.44 0.05705811164099547 0  0.46 0.05705811164099547 0  0.48 0.05705811164099547 0  0.5 0.05705811164099547 0  0.52 0.05705811164099547 0  0.54 0.05705811164099547 0  0.5600000000000001 0.05705811164099547 0  0.58 0.05705811164099547 0  0.6 0.05705811164099547 0  0.62 0.05705811164099547 0  0.64 0.05705811164099547 0  0.66 0.05705811164099547 0  0.68 0.05705811164099547 0  0.7 0.05705811164099547 0  0.72 0.05705811164099547 0  0.74 0.05705811164099547 0  0.76 0.05705811164099547 0  0.78 0.05705811164099547 0  0.8 0.05705811164099547 0  0.82 0.05705811164099547 0  0.84 0.05705811164099547 0  0.86 0.05705811164099547 0  0.88 0.05705811164099547 0  0.9 0.05705811164099547 0  0.92 0.05705811164099547 0  0.9399999999999999 0.05705811164099547 0  0.96 0.05705811164099547 0  0.98 0.05705811164099547 0  1 0.05705811164099547 0  0 0.07667714377545 0  0.02 0.07667714377545 0  0.04 0.07667714377545 0  0.06 0.07667714377545 0  0.08 0.07667714377545 0  0.1 0.07667714377545 0  0.12 0.07667714377545 0  0.14 0.07667714377545 0  0.16 0.07667714377545 0  0.18 0.07667714377545 0  0.2 0.07667714377545 0  0.22 0.07667714377545 0  0.24 0.07667714377545 0  0.26 0.07667714377545 0  0.28 0.07667714377545 0  0.3 0.07667714377545 0  0.32 0.07667714377545 0  0.34 0.07667714377545 0  0.36 0.07667714377545 0  0.38 0.07667714377545 0  0.4 0.07667714377545 0  0.42 0.07667714377545 0  0.44 0.07667714377545 0  0.46 0.07667714377545 0  0.48 0.07667714377545 0  0.5 0.07667714377545 0  0.52 0.07667714377545 0  0.54 0.07667714377545 0  0.5600000000000001 0.07667714377545 0  0.58 0.07667714377545 0  0.6 0.07667714377545 0  0.62 0.07667714377545 0  0.64 0.07667714377545 0  0.66 0.07667714377545 0  0.68 0.07667714377545 0  0.7 0.07667714377545 0  0.72 0.07667714377545 0  0.74 0.07667714377545 0  0.76 0.07667714377545 0  0.78 0.07667714377545 0  0.8 0.07667714377545 0  0.82 0.07667714377545 0  0.84 0.07667714377545 0  0.86 0.07667714377545 0  0.88 0.07667714377545 0  0.9 0.07667714377545 0  0.92 0.07667714377545 0  0.9399999999999999 0.07667714377545 0  0.96 0.07667714377545 0  0.98 0.07667714377545 0  1 0.07667714377545 0  0 0.1098730133816912 0  0.02 0.1098730133816912 0  0.04 0.1098730133816912 0  0.06 0.1098730133816912 0  0.08 0.1098730133816912 0  0.1 0.1098730133816912 0  0.12 0.1098730133816912 0  0.14 0.1098730133816912 0  0.16 0.1098730133816912 0  0.18 0.1098730133816912 0  0.2 0.1098730133816912 0  0.22 0.1098730133816912 0  0.24 0.1098730133816912 0  0.26 0.1098730133816912 0  0.28 0.1098730133816912 0  0.3 0.1098730133816912 0  0.32 0.1098730133816912 0  0.34 0.1098730133816912 0  0.36 0.1098730133816912 0  0.38 0.1098730133816912 0  0.4 0.1098730133816912 0  0.42 0.1098730133816912 0  0.44 0.1098730133816912 0  0.46 0.1098730133816912 0  0.48 0.1098730133816912 0  0.5 0.1098730133816912 0  0.52 0.1098730133816912 0  0.54 0.1098730133816912 0  0.5600000000000001 0.1098730133816912 0  0.58 0.1098730133816912 0  0.6 0.1098730133816912 0  0.62 0.1098730133816912 0  0.64 0.1098730133816912 0  0.66 0.1098730133816912 0  0.68 0.1098730133816912 0  0.7 0.1098730133816912 0  0.72 0.1098730133816912 0  0.74 0.1098730133816912 0  0.76 0.1098730133816912 0  0.78 0.1098730133816912 0  0.8 0.1098730133816912 0  0.82 0.1098730133816912 0  0.84 0.1098730133816912 0  0.86 0.1098730133816912 0  0.88 0.1098730133816912 0  0.9 0.1098730133816912 0  0.92 0.1098730133816912 0  0.9399999999999999 0.1098730133816912 0  0.96 0.1098730133816912 0  0.98 0.1098730133816912 0  1 0.1098730133816912 0  0 0.1603283563168221 0  0.02 0.1603283563168221 0  0.04 0.1603283563168221 0  0.06 0.1603283563168221 0  0.08 0.1603283563168221 0  0.1 0.1603283563168221 0  0.12 0.1603283563168221 0  0.14 0.1603283563168221 0  0.16 0.1603283563168221 0  0.18 0.1603283563168221 0  0.2 0.1603283563168221 0  0.22 0.1603283563168221 0  0.24 0.1603283563168221 0  0.26 0.1603283563168221 0  0.28 0.1603283563168221 0  0.3 0.1603283563168221 0  0.32 0.1603283563168221 0  0.34 0.1603283563168221 0  0.36 0.1603283563168221 0  0.38 0.1603283563168221 0  0.4 0.1603283563168221 0  0.42 0.1603283563168221 0  0.44 0.1603283563168221 0  0.46 0.1603283563168221 0  0.48 0.1603283563168221 0  0.5 0.1603283563168221 0  0.52 0.1603283563168221 0  0.54 0.1603283563168221 0  0.5600000000000001 0.1603283563168221 0  0.58 0.1603283563168221 0 
[...]
<PointData  Vectors="u_paraw"> 
<DataArray  type="Float64"  Name="u_paraw"  NumberOfComponents="3" format="ascii">3.6879908630126723e-05 3.6040648012273602e-04 0.0000000000000000e+00  3.6879908620255055e-05 3.6040648011438766e-04 0.0000000000000000e+00  3.6879908633940018e-05 3.6040648012078446e-04 0.0000000000000000e+00  3.6879908637142541e-05 3.6040648013291662e-04 0.0000000000000000e+00  3.6879908634616845e-05 3.6040648012577173e-04 0.0000000000000000e+00  3.6879908630704488e-05 3.6040648012034010e-04 0.0000000000000000e+00  3.6879908629004187e-05 3.6040648012996732e-04 0.0000000000000000e+00  3.6879908633692400e-05 3.6040648012017747e-04 0.0000000000000000e+00  3.6879908631315280e-05 3.6040648011612255e-04 0.0000000000000000e+00  3.6879908634567317e-05 3.6040648011746647e-04 0.0000000000000000e+00  3.6879908619297596e-05 3.6040648010520463e-04 0.0000000000000000e+00  3.6879908644901200e-05 3.6040648012303976e-04 0.0000000000000000e+00  3.6879908634352713e-05 3.6040648010539930e-04 0.0000000000000000e+00  3.6879908630555918e-05 3.6040648012766882e-04 0.0000000000000000e+00  3.6879908643597081e-05 3.6040648012260662e-04 0.0000000000000000e+00  3.6879908628971167e-05 3.6040648011394282e-04 0.0000000000000000e+00  3.6879908644538026e-05 3.6040648012020950e-04 0.0000000000000000e+00  3.6879908642210427e-05 3.6040648012877573e-04 0.0000000000000000e+00  3.6879908637604750e-05 3.6040648011830131e-04 0.0000000000000000e+00  3.6879908635392706e-05 3.6040648011722795e-04 0.0000000000000000e+00  3.6879908628525458e-05 3.6040648011010577e-04 0.0000000000000000e+00  3.6879908643035817e-05 3.6040648011156841e-04 0.0000000000000000e+00  3.6879908631199724e-05 3.6040648012126118e-04 0.0000000000000000e+00  3.6879908635244137e-05 3.6040648011295722e-04 0.0000000000000000e+00  3.6879908635161595e-05 3.6040648011580764e-04 0.0000000000000000e+00  3.6879908629185771e-05 3.6040648012144549e-04 0.0000000000000000e+00  3.6879908631315280e-05 3.6040648011666416e-04 0.0000000000000000e+00  3.6879908635013026e-05 3.6040648011657743e-04 0.0000000000000000e+00  3.6879908629730528e-05 3.6040648011488802e-04 0.0000000000000000e+00  3.6879908636036513e-05 3.6040648012096845e-04 0.0000000000000000e+00  3.6879908636317145e-05 3.6040648011112389e-04 0.0000000000000000e+00  3.6879908638545695e-05 3.6040648011979751e-04 0.0000000000000000e+00  3.6879908627716575e-05 3.6040648012337537e-04 0.0000000000000000e+00  3.6879908634996519e-05 3.6040648011189367e-04 0.0000000000000000e+00  3.6879908632338760e-05 3.6040648012035240e-04 0.0000000000000000e+00  3.6879908632338760e-05 3.6040648011317303e-04 0.0000000000000000e+00  3.6879908632503836e-05 3.6040648011655574e-04 0.0000000000000000e+00  3.6879908636119047e-05 3.6040648011888678e-04 0.0000000000000000e+00  3.6879908632140669e-05 3.6040648011106968e-04 0.0000000000000000e+00  3.6879908631282259e-05 3.6040648011058179e-04 0.0000000000000000e+00  3.6879908632256225e-05 3.6040648011354361e-04 0.0000000000000000e+00  3.6879908629037201e-05 3.6040648012237791e-04 0.0000000000000000e+00  3.6879908630853057e-05 3.6040648011195873e-04 0.0000000000000000e+00  3.6879908636779360e-05 3.6040648010081313e-04 0.0000000000000000e+00  3.6879908635392706e-05 3.6040648012198760e-04 0.0000000000000000e+00  3.6879908635145088e-05 3.6040648012514262e-04 0.0000000000000000e+00  3.6879908641434559e-05 3.6040648012027651e-04 0.0000000000000000e+00  3.6879908636564756e-05 3.6040648011895183e-04 0.0000000000000000e+00  3.6879908635508262e-05 3.6040648012358137e-04 0.0000000000000000e+00  3.6879908638347605e-05 3.6040648012161897e-04 0.0000000000000000e+00  3.6879908630126716e-05 2.2718224776557044e-15 0.0000000000000000e+00  6.2098571583315891e-06 4.7624311505795996e-04 0.0000000000000000e+00  6.2098571672550854e-06 4.7624311506808641e-04 0.0000000000000000e+00  6.2098571733859768e-06 4.7624311506893219e-04 0.0000000000000000e+00  6.2098571709143618e-06 4.7624311507398447e-04 0.0000000000000000e+00  6.2098571616056789e-06 4.7624311506780451e-04 0.0000000000000000e+00  6.2098571713958458e-06 4.7624311508346072e-04 0.0000000000000000e+00  6.2098571692131198e-06 4.7624311506930039e-04 0.0000000000000000e+00  6.2098571705612736e-06 4.7624311507498226e-04 0.0000000000000000e+00  6.2098571576254144e-06 4.7624311506656885e-04 0.0000000000000000e+00  6.2098571704328786e-06 4.7624311506674167e-04 0.0000000000000000e+00  6.2098571678649661e-06 4.7624311507242354e-04 0.0000000000000000e+00  6.2098571685390425e-06 4.7624311506329456e-04 0.0000000000000000e+00  6.2098571660674267e-06 4.7624311504930770e-04 0.0000000000000000e+00  6.2098571735785709e-06 4.7624311506377096e-04 0.0000000000000000e+00  6.2098571617340747e-06 4.7624311506184232e-04 0.0000000000000000e+00  6.2098571634995141e-06 4.7624311505537923e-04 0.0000000000000000e+00  6.2098571802551438e-06 4.7624311506958228e-04 0.0000000000000000e+00  6.2098571714921425e-06 4.7624311505427459e-04 0.0000000000000000e+00  6.2098571672550863e-06 4.7624311505709227e-04 0.0000000000000000e+00  6.2098571676081745e-06 4.7624311505514071e-04 0.0000000000000000e+00  6.2098571710427576e-06 4.7624311507008226e-04 0.0000000000000000e+00  6.2098571697909005e-06 4.7624311505986783e-04 0.0000000000000000e+00  6.2098571695020097e-06 4.7624311506617789e-04 0.0000000000000000e+00  6.2098571663563174e-06 4.7624311506023771e-04 0.0000000000000000e+00  6.2098571695662081e-06 4.7624311505863184e-04 0.0000000000000000e+00  6.2098571701118896e-06 4.7624311506600441e-04 0.0000000000000000e+00  6.2098571703686803e-06 4.7624311506630799e-04 0.0000000000000000e+00  6.2098571629217343e-06 4.7624311505943415e-04 0.0000000000000000e+00  6.2098571700155921e-06 4.7624311506698280e-04 0.0000000000000000e+00  6.2098571716847357e-06 4.7624311506535389e-04 0.0000000000000000e+00  6.2098571757933952e-06 4.7624311506685009e-04 0.0000000000000000e+00  6.2098571645587780e-06 4.7624311505011001e-04 0.0000000000000000e+00  6.2098571671266905e-06 4.7624311506127729e-04 0.0000000000000000e+00  6.2098571679291636e-06 4.7624311506216634e-04 0.0000000000000000e+00  6.2098571709143618e-06 4.7624311506123653e-04 0.0000000000000000e+00  6.2098571692773173e-06 4.7624311506442148e-04 0.0000000000000000e+00  6.2098571700797904e-06 4.7624311506086530e-04 0.0000000000000000e+00  6.2098571691168232e-06 4.7624311506429137e-04 0.0000000000000000e+00  6.2098571649760645e-06 4.7624311505234347e-04 0.0000000000000000e+00  6.2098571732896810e-06 4.7624311506233981e-04 0.0000000000000000e+00  6.2098571707538677e-06 4.7624311505928496e-04 0.0000000000000000e+00  6.2098571711390542e-06 4.7624311505891373e-04 0.0000000000000000e+00  6.2098571693736139e-06 4.7624311506956060e-04 0.0000000000000000e+00  6.2098571671908888e-06 4.7624311505587797e-04 0.0000000000000000e+00  6.2098571750872196e-06 4.7624311505370956e-04 0.0000000000000000e+00  6.2098571706896694e-06 4.7624311506082193e-04 0.0000000000000000e+00  6.2098571706896694e-06 4.7624311505620583e-04 0.0000000000000000e+00  6.2098571803193413e-06 4.7624311507506834e-04 0.0000000000000000e+00  6.2098571620229646e-06 4.7624311505958594e-04 0.0000000000000000e+00  6.2098571712353509e-06 4.7624311506318549e-04 0.0000000000000000e+00  6.2098571583315908e-06 5.7093312267118010e-04 0.0000000000000000e+00  5.0124203825201817e-06 1.9638710389638381e-04 0.0000000000000000e+00  5.0124203868056458e-06 1.9638710390445027e-04 0.0000000000000000e+00  5.0124203869263632e-06 1.9638710389156998e-04 0.0000000000000000e+00  5.0124203897028610e-06 1.9638710390826661e-04 0.0000000000000000e+00  5.0124203849345280e-06 1.9638710390440685e-04 0.0000000000000000e+00  5.0124203768464678e-06 1.9638710389139659e-04 0.0000000000000000e+00  5.0124203841498654e-06 1.9638710389790153e-04 0.0000000000000000e+00  5.0124203828823331e-06 1.9638710389703444e-04 0.0000000000000000e+00  5.0124203716556238e-06 1.9638710389274100e-04 0.0000000000000000e+00  5.0124203886164057e-06 1.9638710389794490e-04 0.0000000000000000e+00  5.0124203821580293e-06 1.9638710390366975e-04 0.0000000000000000e+00  5.0124203850552446e-06 1.9638710390917750e-04 0.0000000000000000e+00  5.0124203874695908e-06 1.9638710389395503e-04 0.0000000000000000e+00  5.0124203982737900e-06 1.9638710391004459e-04 0.0000000000000000e+00  5.0124203880128193e-06 1.9638710390041739e-04 0.0000000000000000e+00  5.0124203862020594e-06 1.9638710388731972e-04 0.0000000000000000e+00  5.0124203928415111e-06 1.9638710390098066e-04 0.0000000000000000e+00  5.0124203829426919e-06 1.9638710389070294e-04 0.0000000000000000e+00  5.0124203910307520e-06 1.9638710389842195e-04 0.0000000000000000e+00  5.0124203903064482e-06 1.9638710389547292e-04 0.0000000000000000e+00  5.0124203855984730e-06 1.9638710390072097e-04 0.0000000000000000e+00  5.0124203860209832e-06 1.9638710389534281e-04 0.0000000000000000e+00  5.0124203919361311e-06 1.9638710390323580e-04 0.0000000000000000e+00  5.0124203809508566e-06 1.9638710389334839e-04 0.0000000000000000e+00  5.0124203743114050e-06 1.9638710388168186e-04 0.0000000000000000e+00  5.0124203894010682e-06 1.9638710390449348e-04 0.0000000000000000e+00  5.0124203861417007e-06 1.9638710389651375e-04 0.0000000000000000e+00  5.0124203773896963e-06 1.9638710389169989e-04 0.0000000000000000e+00  5.0124203807094217e-06 1.9638710388714733e-04 0.0000000000000000e+00  5.0124203772086202e-06 1.9638710388979170e-04 0.0000000000000000e+00  5.0124203875299496e-06 1.9638710389252389e-04 0.0000000000000000e+00  5.0124203778725653e-06 1.9638710389122284e-04 0.0000000000000000e+00  5.0124203905478822e-06 1.9638710390063372e-04 0.0000000000000000e+00  5.0124203844516582e-06 1.9638710390440674e-04 0.0000000000000000e+00  5.0124203703277336e-06 1.9638710388771111e-04 0.0000000000000000e+00  5.0124203840895067e-06 1.9638710388723298e-04 0.0000000000000000e+00  5.0124203968251824e-06 1.9638710390197813e-04 0.0000000000000000e+00  5.0124203839687893e-06 1.9638710388727635e-04 0.0000000000000000e+00  5.0124203871677981e-06 1.9638710389993983e-04 0.0000000000000000e+00  5.0124203853570382e-06 1.9638710388411048e-04 0.0000000000000000e+00  5.0124203857795492e-06 1.9638710390371394e-04 0.0000000000000000e+00  5.0124203743114050e-06 1.9638710388267933e-04 0.0000000000000000e+00  5.0124203874695908e-06 1.9638710388784013e-04 0.0000000000000000e+00  5.0124203900650133e-06 1.9638710390870018e-04 0.0000000000000000e+00  5.0124203874695908e-06 1.9638710389104937e-04 0.0000000000000000e+00  5.0124203847534518e-06 1.9638710389217694e-04 0.0000000000000000e+00  5.0124203892803508e-06 1.9638710389716535e-04 0.0000000000000000e+00  5.0124203801058354e-06 1.9638710387578380e-04 0.0000000000000000e+00  5.0124203864434943e-06 1.9638710389738111e-04 0.0000000000000000e+00  5.0124203891596333e-06 1.9638710390735577e-04 0.0000000000000000e+00  5.0124203825201817e-06 3.4777007695046836e-04 0.0000000000000000e+00  -4.2019003240756193e-05 -2.0590693452487291e-04 0.0000000000000000e+00  -4.2019003250164297e-05 -2.0590693453545472e-04 0.0000000000000000e+00  -4.2019003241621305e-05 -2.0590693452756176e-04 0.0000000000000000e+00  -4.2019003233835283e-05 -2.0590693453337303e-04 0.0000000000000000e+00  -4.2019003234916673e-05 -2.0590693452973011e-04 0.0000000000000000e+00  -4.2019003235565508e-05 -2.0590693452539346e-04 0.0000000000000000e+00  -4.2019003249191049e-05 -2.0590693453614845e-04 0.0000000000000000e+00  -4.2019003247677089e-05 -2.0590693454560299e-04 0.0000000000000000e+00  -4.2019003241513163e-05 -2.0590693453762326e-04 0.0000000000000000e+00  -4.2019003247677096e-05 -2.0590693453623518e-04 0.0000000000000000e+00  -4.2019003242810831e-05 -2.0590693454603667e-04 0.0000000000000000e+00  -4.2019003230915520e-05 -2.0590693453285277e-04 0.0000000000000000e+00  -4.2019003252543361e-05 -2.0590693454169956e-04 0.0000000000000000e+00  -4.2019003242378275e-05 -2.0590693455271506e-04 0.0000000000000000e+00  -4.2019003244757333e-05 -2.0590693453597552e-04 0.0000000000000000e+00  -4.2019003238809684e-05 -2.0590693454612311e-04 0.0000000000000000e+00  -4.2019003239242240e-05 -2.0590693455158749e-04 0.0000000000000000e+00  -4.2019003237187596e-05 -2.0590693452522023e-04 0.0000000000000000e+00  -4.2019003241405027e-05 -2.0590693453909748e-04 0.0000000000000000e+00  -4.2019003235024816e-05 -2.0590693454074547e-04 0.0000000000000000e+00  -4.2019003241729441e-05 -2.0590693453814392e-04 0.0000000000000000e+00  -4.2019003245514316e-05 -2.0590693454386797e-04 0.0000000000000000e+00  -4.2019003242486417e-05 -2.0590693454395470e-04 0.0000000000000000e+00  -4.2019003252435219e-05 -2.0590693454248073e-04 0.0000000000000000e+00  -4.2019003234051561e-05 -2.0590693452946976e-04 0.0000000000000000e+00  -4.2019003240539915e-05 -2.0590693453718928e-04 0.0000000000000000e+00  -4.2019003250704995e-05 -2.0590693453371984e-04 0.0000000000000000e+00  -4.2019003251678249e-05 -2.0590693454074547e-04 0.0000000000000000e+00  -4.2019003243459672e-05 -2.0590693454222112e-04 0.0000000000000000e+00  -4.2019003239242240e-05 -2.0590693454456186e-04 0.0000000000000000e+00  -4.2019003240431773e-05 -2.0590693452417886e-04 0.0000000000000000e+00  -4.2019003246703842e-05 -2.0590693455063339e-04 0.0000000000000000e+00  -4.2019003240539915e-05 -2.0590693454178630e-04 0.0000000000000000e+00  -4.2019003245189896e-05 -2.0590693454881193e-04 0.0000000000000000e+00  -4.2019003250164297e-05 -2.0590693453536896e-04 0.0000000000000000e+00  -4.2019003248001516e-05 -2.0590693454490880e-04 0.0000000000000000e+00  -4.2019003239782939e-05 -2.0590693453901074e-04 0.0000000000000000e+00  -4.2019003245081760e-05 -2.0590693453450046e-04 0.0000000000000000e+00  -4.2019003240215495e-05 -2.0590693454091894e-04 0.0000000000000000e+00  -4.2019003236971318e-05 -2.0590693453484741e-04 0.0000000000000000e+00  -4.2019003232862029e-05 -2.0590693452556777e-04 0.0000000000000000e+00  -4.2019003250056161e-05 -2.0590693454074547e-04 0.0000000000000000e+00  -4.2019003235781786e-05 -2.0590693453597498e-04 0.0000000000000000e+00  -4.2019003232753893e-05 -2.0590693453371984e-04 0.0000000000000000e+00  -4.2019003241729441e-05 -2.0590693454239345e-04 0.0000000000000000e+00  -4.2019003235565508e-05 -2.0590693453857706e-04 0.0000000000000000e+00  -4.2019003229942273e-05 -2.0590693452522083e-04 0.0000000000000000e+00  -4.2019003242810838e-05 -2.0590693454681700e-04 0.0000000000000000e+00  -4.2019003238809684e-05 -2.0590693454941908e-04 0.0000000000000000e+00  -4.2019003235781786e-05 -2.0590693453016365e-04 0.0000000000000000e+00  -4.2019003240756193e-05 1.8769418269419733e-05 0.0000000000000000e+00  1.2009228513467493e-04 5.9488906337043501e-04 0.0000000000000000e+00  1.2009228513387916e-04 5.9488906337433814e-04 0.0000000000000000e+00  1.2009228513290654e-04 5.9488906337069544e-04 0.0000000000000000e+00  1.2009228511716768e-04 5.9488906334493447e-04 0.0000000000000000e+00  1.2009228512928128e-04 5.9488906337945547e-04 0.0000000000000000e+00  1.2009228511469192e-04 5.9488906336080762e-04 0.0000000000000000e+00  1.2009228510735302e-04 5.9488906335655679e-04 0.0000000000000000e+00  1.2009228511946663e-04 5.9488906337156291e-04 0.0000000000000000e+00  1.2009228510885616e-04 5.9488906335794533e-04 0.0000000000000000e+00  1.2009228511575296e-04 5.9488906335516901e-04 0.0000000000000000e+00  1.2009228512150029e-04 5.9488906336922103e-04 0.0000000000000000e+00  1.2009228511486875e-04 5.9488906336288929e-04 0.0000000000000000e+00  1.2009228511115509e-04 5.9488906335915888e-04 0.0000000000000000e+00  1.2009228511796347e-04 5.9488906336965396e-04 0.0000000000000000e+00  1.2009228513617808e-04 5.9488906337494649e-04 0.0000000000000000e+00  1.2009228512486026e-04 5.9488906336887333e-04 0.0000000000000000e+00  1.2009228512282660e-04 5.9488906335551596e-04 0.0000000000000000e+00  1.2009228513140338e-04 5.9488906336575245e-04 0.0000000000000000e+00  1.2009228512680552e-04 5.9488906337919493e-04 0.0000000000000000e+00  1.2009228512521395e-04 5.9488906336444978e-04 0.0000000000000000e+00  1.2009228512733604e-04 5.9488906337433933e-04 0.0000000000000000e+00  1.2009228511433823e-04 5.9488906335586290e-04 0.0000000000000000e+00  1.2009228512132344e-04 5.9488906334658213e-04 0.0000000000000000e+00  1.2009228512079293e-04 5.9488906337963024e-04 0.0000000000000000e+00  1.2009228511248141e-04 5.9488906334432699e-04 0.0000000000000000e+00  1.2009228512264976e-04 5.9488906335950582e-04 0.0000000000000000e+00  1.2009228512945813e-04 5.9488906336783250e-04 0.0000000000000000e+00  1.2009228512866234e-04 5.9488906336913354e-04 0.0000000000000000e+00  1.2009228512804340e-04 5.9488906335543258e-04 0.0000000000000000e+00  1.2009228512742445e-04 5.9488906335447512e-04 0.0000000000000000e+00  1.2009228512344554e-04 5.9488906336765902e-04 0.0000000000000000e+00  1.2009228512158871e-04 5.9488906335941909e-04 0.0000000000000000e+00  1.2009228511893610e-04 5.9488906335490881e-04 0.0000000000000000e+00  1.2009228512883919e-04 5.9488906335221998e-04 0.0000000000000000e+00  1.2009228512945813e-04 5.9488906335812140e-04 0.0000000000000000e+00  1.2009228512477184e-04 5.9488906336783250e-04 0.0000000000000000e+00  1.2009228512919287e-04 5.9488906336679166e-04 0.0000000000000000e+00  1.2009228511743295e-04 5.9488906334684234e-04 0.0000000000000000e+00  1.2009228512229607e-04 5.9488906335907214e-04 0.0000000000000000e+00  1.2009228511867083e-04 5.9488906335699047e-04 0.0000000000000000e+00  1.2009228513264127e-04 5.9488906336445315e-04 0.0000000000000000e+00  1.2009228512211923e-04 5.9488906336124055e-04 0.0000000000000000e+00  1.2009228512273818e-04 5.9488906335421492e-04 0.0000000000000000e+00  1.2009228513140338e-04 5.9488906336280180e-04 0.0000000000000000e+00  1.2009228512450658e-04 5.9488906337312340e-04 0.0000000000000000e+00  1.2009228512830866e-04 5.9488906335699047e-04 0.0000000000000000e+00  1.2009228512945813e-04 5.9488906337217267e-04 0.0000000000000000e+00  1.2009228511752136e-04 5.9488906334883727e-04 0.0000000000000000e+00  1.2009228513175706e-04 5.9488906337563875e-04 0.0000000000000000e+00  1.2009228513732754e-04 5.9488906336765902e-04 0.0000000000000000e+00  1.2009228513467493e-04 -2.2912331005221073e-04 0.0000000000000000e+00  -2.0825779897435520e-04 -4.5568655270885466e-04 0.0000000000000000e+00  -2.0825779898323894e-04 -4.5568655272672232e-04 0.0000000000000000e+00  -2.0825779899097301e-04 -4.5568655271995695e-04 0.0000000000000000e+00  -2.0825779899860257e-04 -4.5568655271093628e-04 0.0000000000000000e+00  -2.0825779901386166e-04 -4.5568655273903880e-04 0.0000000000000000e+00  -2.0825779899985672e-04 -4.5568655273782482e-04 0.0000000000000000e+00  -2.0825779898909173e-04 -4.5568655269185394e-04 0.0000000000000000e+00  -2.0825779898898724e-04 -4.5568655273105940e-04 0.0000000000000000e+00  -2.0825779898491116e-04 -4.5568655272984509e-04 0.0000000000000000e+00  -2.0825779898637434e-04 -4.5568655273660981e-04 0.0000000000000000e+00  -2.0825779898261186e-04 -4.5568655272637564e-04 0.0000000000000000e+00  -2.0825779896599405e-04 -4.5568655270434465e-04 0.0000000000000000e+00  -2.0825779897487776e-04 -4.5568655270139492e-04 0.0000000000000000e+00  -2.0825779898334343e-04 -4.5568655270590520e-04 0.0000000000000000e+00  -2.0825779898804659e-04 -4.5568655272099860e-04 0.0000000000000000e+00  -2.0825779898470213e-04 -4.5568655271457882e-04 0.0000000000000000e+00  -2.0825779898334343e-04 -4.5568655270954812e-04 0.0000000000000000e+00  -2.0825779898888270e-04 -4.5568655272602929e-04 0.0000000000000000e+00  -2.0825779898626983e-04 -4.5568655270868076e-04 0.0000000000000000e+00  -2.0825779899421294e-04 -4.5568655272810966e-04 0.0000000000000000e+00  -2.0825779899034589e-04 -4.5568655269948802e-04 0.0000000000000000e+00  -2.0825779899703482e-04 -4.5568655272012993e-04 0.0000000000000000e+00  -2.0825779899045040e-04 -4.5568655271405840e-04 0.0000000000000000e+00  -2.0825779898731497e-04 -4.5568655270469220e-04 0.0000000000000000e+00  -2.0825779899400390e-04 -4.5568655272290549e-04 0.0000000000000000e+00  -2.0825779899222717e-04 -4.5568655272498716e-04 0.0000000000000000e+00  -2.0825779898323891e-04 -4.5568655270937465e-04 0.000000000000