<?xml version="1.0"?>
<VTKFile type="UnstructuredGrid"  version="0.1"  >
<UnstructuredGrid>
<Piece  NumberOfPoints="2601" NumberOfCells="5000">
<Points>
<DataArray  type="Float64"  NumberOfComponents="3"  format="ascii">0 0 0  0.02 0 0  0.04 0 0  0.06 0 0  0.08 0 0  0.1 0 0  0.12 0 0  0.14 0 0  0.16 0 0  0.18 0 0  0.2 0 0  0.22 0 0  0.24 0 0  0.26 0 0  0.28 0 0  0.3 0 0  0.32 0 0  0.34 0 0  0.36 0 0  0.38 0 0  0.4 0 0  0.42 0 0  0.44 0 0  0.46 0 0  0.48 0 0  0.5 0 0  0.52 0 0  0.54 0 0  0.5600000000000001 0 0  0.58 0 0  0.6 0 0  0.62 0 0  0.64 0 0  0.66 0 0  0.68 0 0  0.7 0 0  0.72 0 0  0.74 0 0  0.76 0 0  0.78 0 0  0.8 0 0  0.82 0 0  0.84 0 0  0.86 0 0  0.88 0 0  0.9 0 0  0.92 0 0  0.9399999999999999 0 0  0.96 0 0  0.98 0 0  1 0 0  0 0.01313563088723984 0  0.02 0.01313563088723984 0  0.04 0.01313563088723984 0  0.06 0.01313563088723984 0  0.08 0.01313563088723984 0  0.1 0.01313563088723984 0  0.12 0.01313563088723984 0  0.14 0.01313563088723984 0  0.16 0.01313563088723984 0  0.18 0.01313563088723984 0  0.2 0.01313563088723984 0  0.22 0.01313563088723984 0  0.24 0.01313563088723984 0  0.26 0.01313563088723984 0  0.28 0.01313563088723984 0  0.3 0.01313563088723984 0  0.32 0.01313563088723984 0  0.34 0.01313563088723984 0  0.36 0.01313563088723984 0  0.38 0.01313563088723984 0  0.4 0.01313563088723984 0  0.42 0.01313563088723984 0  0.44 0.01313563088723984 0  0.46 0.01313563088723984 0  0.48 0.01313563088723984 0  0.5 0.01313563088723984 0  0.52 0.01313563088723984 0  0.54 0.01313563088723984 0  0.5600000000000001 0.01313563088723984 0  0.58 0.01313563088723984 0  0.6 0.01313563088723984 0  0.62 0.01313563088723984 0  0.64 0.01313563088723984 0  0.66 0.01313563088723984 0  0.68 0.01313563088723984 0  0.7 0.01313563088723984 0  0.72 0.01313563088723984 0  0.74 0.01313563088723984 0  0.76 0.01313563088723984 0  0.78 0.01313563088723984 0  0.8 0.01313563088723984 0  0.82 0.01313563088723984 0  0.84 0.01313563088723984 0  0.86 0.01313563088723984 0  0.88 0.01313563088723984 0  0.9 0.01313563088723984 0  0.92 0.01313563088723984 0  0.9399999999999999 0.01313563088723984 0  0.96 0.01313563088723984 0  0.98 0.01313563088723984 0  1 0.01313563088723984 0  0 0.02664639863733726 0  0.02 0.02664639863733726 0  0.04 0.02664639863733726 0  0.06 0.02664639863733726 0  0.08 0.02664639863733726 0  0.1 0.02664639863733726 0  0.12 0.02664639863733726 0  0.14 0.02664639863733726 0  0.16 0.02664639863733726 0  0.18 0.02664639863733726 0  0.2 0.02664639863733726 0  0.22 0.02664639863733726 0  0.24 0.02664639863733726 0  0.26 0.02664639863733726 0  0.28 0.02664639863733726 0  0.3 0.02664639863733726 0  0.32 0.02664639863733726 0  0.34 0.02664639863733726 0  0.36 0.02664639863733726 0  0.38 0.02664639863733726 0  0.4 0.02664639863733726 0  0.42 0.02664639863733726 0  0.44 0.02664639863733726 0  0.46 0.02664639863733726 0  0.48 0.02664639863733726 0  0.5 0.02664639863733726 0  0.52 0.02664639863733726 0  0.54 0.02664639863733726 0  0.5600000000000001 0.02664639863733726 0  0.58 0.02664639863733726 0  0.6 0.02664639863733726 0  0.62 0.02664639863733726 0  0.64 0.02664639863733726 0  0.66 0.02664639863733726 0  0.68 0.02664639863733726 0  0.7 0.02664639863733726 0  0.72 0.02664639863733726 0  0.74 0.02664639863733726 0  0.76 0.02664639863733726 0  0.78 0.02664639863733726 0  0.8 0.02664639863733726 0  0.82 0.02664639863733726 0  0.84 0.02664639863733726 0  0.86 0.02664639863733726 0  0.88 0.02664639863733726 0  0.9 0.02664639863733726 0  0.92 0.02664639863733726 0  0.9399999999999999 0.02664639863733726 0  0.96 0.02664639863733726 0  0.98 0.02664639863733726 0  1 0.02664639863733726 0  0 0.04101652939099896 0  0.02 0.04101652939099896 0  0.04 0.04101652939099896 0  0.06 0.04101652939099896 0  0.08 0.04101652939099896 0  0.1 0.04101652939099896 0  0.12 0.04101652939099896 0  0.14 0.04101652939099896 0  0.16 0.04101652939099896 0  0.18 0.04101652939099896 0  0.2 0.04101652939099896 0  0.22 0.04101652939099896 0  0.24 0.04101652939099896 0  0.26 0.04101652939099896 0  0.28 0.04101652939099896 0  0.3 0.04101652939099896 0  0.32 0.04101652939099896 0  0.34 0.04101652939099896 0  0.36 0.04101652939099896 0  0.38 0.04101652939099896 0  0.4 0.04101652939099896 0  0.42 0.04101652939099896 0  0.44 0.04101652939099896 0  0.46 0.04101652939099896 0  0.48 0.04101652939099896 0  0.5 0.04101652939099896 0  0.52 0.04101652939099896 0  0.54 0.04101652939099896 0  0.5600000000000001 0.04101652939099896 0  0.58 0.04101652939099896 0  0.6 0.04101652939099896 0  0.62 0.04101652939099896 0  0.64 0.04101652939099896 0  0.66 0.04101652939099896 0  0.68 0.04101652939099896 0  0.7 0.04101652939099896 0  0.72 0.04101652939099896 0  0.74 0.04101652939099896 0  0.76 0.04101652939099896 0  0.78 0.04101652939099896 0  0.8 0.04101652939099896 0  0.82 0.04101652939099896 0  0.84 0.04101652939099896 0  0.86 0.04101652939099896 0  0.88 0.04101652939099896 0  0.9 0.04101652939099896 0  0.92 0.04101652939099896 0  0.9399999999999999 0.04101652939099896 0  0.96 0.04101652939099896 0  0.98 0.04101652939099896 0  1 0.04101652939099896 0  0 0.05705811164099547 0  0.02 0.05705811164099547 0  0.04 0.05705811164099547 0  0.06 0.05705811164099547 0  0.08 0.05705811164099547 0  0.1 0.05705811164099547 0  0.12 0.05705811164099547 0  0.14 0.05705811164099547 0  0.16 0.05705811164099547 0  0.18 0.05705811164099547 0  0.2 0.05705811164099547 0  0.22 0.05705811164099547 0  0.24 0.05705811164099547 0  0.26 0.05705811164099547 0  0.28 0.05705811164099547 0  0.3 0.05705811164099547 0  0.32 0.05705811164099547 0  0.34 0.05705811164099547 0  0.36 0.05705811164099547 0  0.38 0.05705811164099547 0  0.4 0.05705811164099547 0  0.42 0.05705811164099547 0  0.44 0.05705811164099547 0  0.46 0.05705811164099547 0  0.48 0.05705811164099547 0  0.5 0.05705811164099547 0  0.52 0.05705811164099547 0  0.54 0.05705811164099547 0  0.5600000000000001 0.05705811164099547 0  0.58 0.05705811164099547 0  0.6 0.05705811164099547 0  0.62 0.05705811164099547 0  0.64 0.05705811164099547 0  0.66 0.05705811164099547 0  0.68 0.05705811164099547 0  0.7 0.05705811164099547 0  0.72 0.05705811164099547 0  0.74 0.05705811164099547 0  0.76 0.05705811164099547 0  0.78 0.05705811164099547 0  0.8 0.05705811164099547 0  0.82 0.05705811164099547 0  0.84 0.05705811164099547 0  0.86 0.05705811164099547 0  0.88 0.05705811164099547 0  0.9 0.05705811164099547 0  0.92 0.05705811164099547 0  0.9399999999999999 0.05705811164099547 0  0.96 0.05705811164099547 0  0.98 0.05705811164099547 0  1 0.05705811164099547 0  0 0.07667714377545 0  0.02 0.07667714377545 0  0.04 0.07667714377545 0  0.06 0.07667714377545 0  0.08 0.07667714377545 0  0.1 0.07667714377545 0  0.12 0.07667714377545 0  0.14 0.07667714377545 0  0.16 0.07667714377545 0  0.18 0.07667714377545 0  0.2 0.07667714377545 0  0.22 0.07667714377545 0  0.24 0.07667714377545 0  0.26 0.07667714377545 0  0.28 0.07667714377545 0  0.3 0.07667714377545 0  0.32 0.07667714377545 0  0.34 0.07667714377545 0  0.36 0.07667714377545 0  0.38 0.07667714377545 0  0.4 0.07667714377545 0  0.42 0.07667714377545 0  0.44 0.07667714377545 0  0.46 0.07667714377545 0  0.48 0.07667714377545 0  0.5 0.07667714377545 0  0.52 0.07667714377545 0  0.54 0.07667714377545 0  0.5600000000000001 0.07667714377545 0  0.58 0.07667714377545 0  0.6 0.07667714377545 0  0.62 0.07667714377545 0  0.64 0.07667714377545 0  0.66 0.07667714377545 0  0.68 0.07667714377545 0  0.7 0.07667714377545 0  0.72 0.07667714377545 0  0.74 0.07667714377545 0  0.76 0.07667714377545 0  0.78 0.07667714377545 0  0.8 0.07667714377545 0  0.82 0.07667714377545 0  0.84 0.07667714377545 0  0.86 0.07667714377545 0  0.88 0.07667714377545 0  0.9 0.07667714377545 0  0.92 0.07667714377545 0  0.9399999999999999 0.07667714377545 0  0.96 0.07667714377545 0  0.98 0.07667714377545 0  1 0.07667714377545 0  0 0.1098730133816912 0  0.02 0.1098730133816912 0  0.04 0.1098730133816912 0  0.06 0.1098730133816912 0  0.08 0.1098730133816912 0  0.1 0.1098730133816912 0  0.12 0.1098730133816912 0  0.14 0.1098730133816912 0  0.16 0.1098730133816912 0  0.18 0.1098730133816912 0  0.2 0.1098730133816912 0  0.22 0.1098730133816912 0  0.24 0.1098730133816912 0  0.26 0.1098730133816912 0  0.28 0.1098730133816912 0  0.3 0.1098730133816912 0  0.32 0.1098730133816912 0  0.34 0.1098730133816912 0  0.36 0.1098730133816912 0  0.38 0.1098730133816912 0  0.4 0.1098730133816912 0  0.42 0.1098730133816912 0  0.44 0.1098730133816912 0  0.46 0.1098730133816912 0  0.48 0.1098730133816912 0  0.5 0.1098730133816912 0  0.52 0.1098730133816912 0  0.54 0.1098730133816912 0  0.5600000000000001 0.1098730133816912 0  0.58 0.1098730133816912 0  0.6 0.1098730133816912 0  0.62 0.1098730133816912 0  0.64 0.1098730133816912 0  0.66 0.1098730133816912 0  0.68 0.1098730133816912 0  0.7 0.1098730133816912 0  0.72 0.1098730133816912 0  0.74 0.1098730133816912 0  0.76 0.1098730133816912 0  0.78 0.1098730133816912 0  0.8 0.1098730133816912 0  0.82 0.1098730133816912 0  0.84 0.1098730133816912 0  0.86 0.1098730133816912 0  0.88 0.1098730133816912 0  0.9 0.1098730133816912 0  0.92 0.1098730133816912 0  0.9399999999999999 0.1098730133816912 0  0.96 0.1098730133816912 0  0.98 0.1098730133816912 0  1 0.1098730133816912 0  0 0.1603283563168221 0  0.02 0.1603283563168221 0  0.04 0.1603283563168221 0  0.06 0.1603283563168221 0  0.08 0.1603283563168221 0  0.1 0.1603283563168221 0  0.12 0.1603283563168221 0  0.14 0.1603283563168221 0  0.16 0.1603283563168221 0  0.18 0.1603283563168221 0  0.2 0.1603283563168221 0  0.22 0.1603283563168221 0  0.24 0.1603283563168221 0  0.26 0.1603283563168221 0  0.28 0.1603283563168221 0  0.3 0.1603283563168221 0  0.32 0.1603283563168221 0  0.34 0.1603283563168221 0  0.36 0.1603283563168221 0  0.38 0.1603283563168221 0  0.4 0.1603283563168221 0  0.42 0.1603283563168221 0  0.44 0.1603283563168221 0  0.46 0.1603283563168221 0  0.48 0.1603283563168221 0  0.5 0.1603283563168221 0  0.52 0.1603283563168221 0  0.54 0.1603283563168221 0  0.5600000000000001 0.1603283563168221 0  0.58 0.1603283563168221 0 
[...]
<PointData  Vectors="u_paraw"> 
<DataArray  type="Float64"  Name="u_paraw"  NumberOfComponents="3" format="ascii">-2.7900643029608167e-06 -1.2598015491699019e-05 0.0000000000000000e+00  -2.7900643091512434e-06 -1.2598015498204232e-05 0.0000000000000000e+00  -2.7900643054534949e-06 -1.2598015491666493e-05 0.0000000000000000e+00  -2.7900643053544483e-06 -1.2598015493281952e-05 0.0000000000000000e+00  -2.7900643057011122e-06 -1.2598015492045962e-05 0.0000000000000000e+00  -2.7900643058166666e-06 -1.2598015497401929e-05 0.0000000000000000e+00  -2.7900643047766749e-06 -1.2598015493065102e-05 0.0000000000000000e+00  -2.7900643020363789e-06 -1.2598015493878272e-05 0.0000000000000000e+00  -2.7900643065099944e-06 -1.2598015493737326e-05 0.0000000000000000e+00  -2.7900643053874636e-06 -1.2598015496371918e-05 0.0000000000000000e+00  -2.7900643044795340e-06 -1.2598015495070894e-05 0.0000000000000000e+00  -2.7900643047601671e-06 -1.2598015493943324e-05 0.0000000000000000e+00  -2.7900643042979484e-06 -1.2598015493813201e-05 0.0000000000000000e+00  -2.7900643037201753e-06 -1.2598015491709849e-05 0.0000000000000000e+00  -2.7900643055855570e-06 -1.2598015493921659e-05 0.0000000000000000e+00  -2.7900643043474718e-06 -1.2598015492739841e-05 0.0000000000000000e+00  -2.7900643070877674e-06 -1.2598015493412046e-05 0.0000000000000000e+00  -2.7900643052719088e-06 -1.2598015494105973e-05 0.0000000000000000e+00  -2.7900643056515883e-06 -1.2598015495298558e-05 0.0000000000000000e+00  -2.7900643057011118e-06 -1.2598015488771661e-05 0.0000000000000000e+00  -2.7900643024820897e-06 -1.2598015487774232e-05 0.0000000000000000e+00  -2.7900643039182688e-06 -1.2598015492891629e-05 0.0000000000000000e+00  -2.7900643018547932e-06 -1.2598015488609031e-05 0.0000000000000000e+00  -2.7900643039017610e-06 -1.2598015492132725e-05 0.0000000000000000e+00  -2.7900643039677923e-06 -1.2598015491124380e-05 0.0000000000000000e+00  -2.7900643045950888e-06 -1.2598015493845727e-05 0.0000000000000000e+00  -2.7900643034725580e-06 -1.2598015492674789e-05 0.0000000000000000e+00  -2.7900643064934866e-06 -1.2598015495558767e-05 0.0000000000000000e+00  -2.7900643005341689e-06 -1.2598015488793415e-05 0.0000000000000000e+00  -2.7900643039182688e-06 -1.2598015489281236e-05 0.0000000000000000e+00  -2.7900643079626809e-06 -1.2598015494919088e-05 0.0000000000000000e+00  -2.7900643058661896e-06 -1.2598015495417821e-05 0.0000000000000000e+00  -2.7900643055360336e-06 -1.2598015496979072e-05 0.0000000000000000e+00  -2.7900643056020649e-06 -1.2598015493162680e-05 0.0000000000000000e+00  -2.7900643040998549e-06 -1.2598015493628956e-05 0.0000000000000000e+00  -2.7900643056680962e-06 -1.2598015493932464e-05 0.0000000000000000e+00  -2.7900643056185727e-06 -1.2598015492674789e-05 0.0000000000000000e+00  -2.7900643054204792e-06 -1.2598015492501317e-05 0.0000000000000000e+00  -2.7900643055525414e-06 -1.2598015493672255e-05 0.0000000000000000e+00  -2.7900643027297067e-06 -1.2598015491406272e-05 0.0000000000000000e+00  -2.7900643077810952e-06 -1.2598015498334394e-05 0.0000000000000000e+00  -2.7900643046941358e-06 -1.2598015492002584e-05 0.0000000000000000e+00  -2.7900643069557048e-06 -1.2598015493422889e-05 0.0000000000000000e+00  -2.7900643020528867e-06 -1.2598015489389656e-05 0.0000000000000000e+00  -2.7900643035550971e-06 -1.2598015490116072e-05 0.0000000000000000e+00  -2.7900643053049244e-06 -1.2598015492338686e-05 0.0000000000000000e+00  -2.7900643059322209e-06 -1.2598015495645572e-05 0.0000000000000000e+00  -2.7900643060972992e-06 -1.2598015496046658e-05 0.0000000000000000e+00  -2.7900643092502900e-06 -1.2598015497326016e-05 0.0000000000000000e+00  -2.7900643056350805e-06 -1.2598015494637195e-05 0.0000000000000000e+00  -2.7900643029608162e-06 -1.7486229118590875e-15 0.0000000000000000e+00  -5.1615362723254183e-05 -8.5085142023481872e-05 0.0000000000000000e+00  -5.1615362726175179e-05 -8.5085142021920621e-05 0.0000000000000000e+00  -5.1615362727138147e-05 -8.5085142024999782e-05 0.0000000000000000e+00  -5.1615362728454213e-05 -8.5085142024782915e-05 0.0000000000000000e+00  -5.1615362724827035e-05 -8.5085142022072409e-05 0.0000000000000000e+00  -5.1615362726560376e-05 -8.5085142020684698e-05 0.0000000000000000e+00  -5.1615362723125793e-05 -8.5085142021248361e-05 0.0000000000000000e+00  -5.1615362722355420e-05 -8.5085142026214129e-05 0.0000000000000000e+00  -5.1615362724281356e-05 -8.5085142024067409e-05 0.0000000000000000e+00  -5.1615362723607280e-05 -8.5085142023286661e-05 0.0000000000000000e+00  -5.1615362723093694e-05 -8.5085142024501090e-05 0.0000000000000000e+00  -5.1615362724891233e-05 -8.5085142022289317e-05 0.0000000000000000e+00  -5.1615362722387519e-05 -8.5085142021833831e-05 0.0000000000000000e+00  -5.1615362724313455e-05 -8.5085142024717808e-05 0.0000000000000000e+00  -5.1615362724730744e-05 -8.5085142026756339e-05 0.0000000000000000e+00  -5.1615362725115927e-05 -8.5085142021985619e-05 0.0000000000000000e+00  -5.1615362725051729e-05 -8.5085142025194857e-05 0.0000000000000000e+00  -5.1615362725244324e-05 -8.5085142026604550e-05 0.0000000000000000e+00  -5.1615362723575181e-05 -8.5085142024674440e-05 0.0000000000000000e+00  -5.1615362725822102e-05 -8.5085142023525186e-05 0.0000000000000000e+00  -5.1615362725757904e-05 -8.5085142024544566e-05 0.0000000000000000e+00  -5.1615362725565316e-05 -8.5085142022289195e-05 0.0000000000000000e+00  -5.1615362722804808e-05 -8.5085142023525186e-05 0.0000000000000000e+00  -5.1615362728357915e-05 -8.5085142028707903e-05 0.0000000000000000e+00  -5.1615362725276423e-05 -8.5085142024761176e-05 0.0000000000000000e+00  -5.1615362723864074e-05 -8.5085142022614456e-05 0.0000000000000000e+00  -5.1615362723414685e-05 -8.5085142024999701e-05 0.0000000000000000e+00  -5.1615362724570248e-05 -8.5085142026886213e-05 0.0000000000000000e+00  -5.1615362725822102e-05 -8.5085142028729831e-05 0.0000000000000000e+00  -5.1615362723767776e-05 -8.5085142022289195e-05 0.0000000000000000e+00  -5.1615362725019630e-05 -8.5085142024457600e-05 0.0000000000000000e+00  -5.1615362724345554e-05 -8.5085142024761176e-05 0.0000000000000000e+00  -5.1615362726656673e-05 -8.5085142028230623e-05 0.0000000000000000e+00  -5.1615362725180126e-05 -8.5085142029336510e-05 0.0000000000000000e+00  -5.1615362725244324e-05 -8.5085142029640561e-05 0.0000000000000000e+00  -5.1615362727844336e-05 -8.5085142024717808e-05 0.0000000000000000e+00  -5.1615362721199864e-05 -8.5085142020662892e-05 0.0000000000000000e+00  -5.1615362726592475e-05 -8.5085142028078835e-05 0.0000000000000000e+00  -5.1615362724570248e-05 -8.5085142028577568e-05 0.0000000000000000e+00  -5.1615362725790003e-05 -8.5085142025498434e-05 0.0000000000000000e+00  -5.1615362726528277e-05 -8.5085142027797417e-05 0.0000000000000000e+00  -5.1615362725436919e-05 -8.5085142025238225e-05 0.0000000000000000e+00  -5.1615362724217158e-05 -8.5085142022939717e-05 0.0000000000000000e+00  -5.1615362727362848e-05 -8.5085142028664304e-05 0.0000000000000000e+00  -5.1615362724762843e-05 -8.5085142027580102e-05 0.0000000000000000e+00  -5.1615362726078895e-05 -8.5085142026170639e-05 0.0000000000000000e+00  -5.1615362727619642e-05 -8.5085142027342052e-05 0.0000000000000000e+00  -5.1615362727362848e-05 -8.5085142028295675e-05 0.0000000000000000e+00  -5.1615362727298657e-05 -8.5085142027428314e-05 0.0000000000000000e+00  -5.1615362722612213e-05 -8.5085142022397616e-05 0.0000000000000000e+00  -5.1615362723254190e-05 -1.4004658198311076e-05 0.0000000000000000e+00  -4.2268234654681822e-04 -5.5314640486454555e-04 0.0000000000000000e+00  -4.2268234655212978e-04 -5.5314640486736448e-04 0.0000000000000000e+00  -4.2268234655158660e-04 -5.5314640486719112e-04 0.0000000000000000e+00  -4.2268234655442341e-04 -5.5314640487005308e-04 0.0000000000000000e+00  -4.2268234655496665e-04 -5.5314640487083371e-04 0.0000000000000000e+00  -4.2268234655744134e-04 -5.5314640487187509e-04 0.0000000000000000e+00  -4.2268234655285408e-04 -5.5314640486688700e-04 0.0000000000000000e+00  -4.2268234654911185e-04 -5.5314640486250758e-04 0.0000000000000000e+00  -4.2268234655363878e-04 -5.5314640487131130e-04 0.0000000000000000e+00  -4.2268234655357844e-04 -5.5314640487105033e-04 0.0000000000000000e+00  -4.2268234655025867e-04 -5.5314640486589029e-04 0.0000000000000000e+00  -4.2268234655297481e-04 -5.5314640487066078e-04 0.0000000000000000e+00  -4.2268234655315593e-04 -5.5314640487005287e-04 0.0000000000000000e+00  -4.2268234655146587e-04 -5.5314640486606300e-04 0.0000000000000000e+00  -4.2268234655134515e-04 -5.5314640486918702e-04 0.0000000000000000e+00  -4.2268234655043978e-04 -5.5314640486562932e-04 0.0000000000000000e+00  -4.2268234655321626e-04 -5.5314640487044318e-04 0.0000000000000000e+00  -4.2268234655309554e-04 -5.5314640486680178e-04 0.0000000000000000e+00  -4.2268234655104336e-04 -5.5314640486870846e-04 0.0000000000000000e+00  -4.2268234655104336e-04 -5.5314640486818804e-04 0.0000000000000000e+00  -4.2268234655436308e-04 -5.5314640487061817e-04 0.0000000000000000e+00  -4.2268234655128481e-04 -5.5314640486562932e-04 0.0000000000000000e+00  -4.2268234655200911e-04 -5.5314640486797120e-04 0.0000000000000000e+00  -4.2268234655001727e-04 -5.5314640486645483e-04 0.0000000000000000e+00  -4.2268234655188839e-04 -5.5314640486510891e-04 0.0000000000000000e+00  -4.2268234655146587e-04 -5.5314640486606300e-04 0.0000000000000000e+00  -4.2268234655031906e-04 -5.5314640486324408e-04 0.0000000000000000e+00  -4.2268234654887045e-04 -5.5314640486606300e-04 0.0000000000000000e+00  -4.2268234655194872e-04 -5.5314640487053295e-04 0.0000000000000000e+00  -4.2268234655019833e-04 -5.5314640486536911e-04 0.0000000000000000e+00  -4.2268234655200911e-04 -5.5314640486732068e-04 0.0000000000000000e+00  -4.2268234655206945e-04 -5.5314640486927224e-04 0.0000000000000000e+00  -4.2268234654971548e-04 -5.5314640486593290e-04 0.0000000000000000e+00  -4.2268234655164693e-04 -5.5314640486992276e-04 0.0000000000000000e+00  -4.2268234654983615e-04 -5.5314640486615278e-04 0.0000000000000000e+00  -4.2268234655062084e-04 -5.5314640486424154e-04 0.0000000000000000e+00  -4.2268234655237123e-04 -5.5314640486957582e-04 0.0000000000000000e+00  -4.2268234654917224e-04 -5.5314640486584616e-04 0.0000000000000000e+00  -4.2268234655243162e-04 -5.5314640486779773e-04 0.0000000000000000e+00  -4.2268234655255230e-04 -5.5314640487109370e-04 0.0000000000000000e+00  -4.2268234655092263e-04 -5.5314640486866812e-04 0.0000000000000000e+00  -4.2268234655303520e-04 -5.5314640487096360e-04 0.0000000000000000e+00  -4.2268234655478559e-04 -5.5314640487252485e-04 0.0000000000000000e+00  -4.2268234655267302e-04 -5.5314640486753752e-04 0.0000000000000000e+00  -4.2268234655128481e-04 -5.5314640486497880e-04 0.0000000000000000e+00  -4.2268234654736146e-04 -5.5314640486437165e-04 0.0000000000000000e+00  -4.2268234655333699e-04 -5.5314640486914517e-04 0.0000000000000000e+00  -4.2268234655430274e-04 -5.5314640487000950e-04 0.0000000000000000e+00  -4.2268234655086230e-04 -5.5314640486710384e-04 0.0000000000000000e+00  -4.2268234655152621e-04 -5.5314640486758089e-04 0.0000000000000000e+00  -4.2268234654681822e-04 5.3610941336651914e-05 0.0000000000000000e+00  -1.6423475790469380e-03 -3.4402559677384516e-03 0.0000000000000000e+00  -1.6423475790476949e-03 -3.4402559677385383e-03 0.0000000000000000e+00  -1.6423475790505065e-03 -3.4402559677389729e-03 0.0000000000000000e+00  -1.6423475790468297e-03 -3.4402559677325526e-03 0.0000000000000000e+00  -1.6423475790478029e-03 -3.4402559677392313e-03 0.0000000000000000e+00  -1.6423475790508307e-03 -3.4402559677397544e-03 0.0000000000000000e+00  -1.6423475790547238e-03 -3.4402559677405306e-03 0.0000000000000000e+00  -1.6423475790475865e-03 -3.4402559677428769e-03 0.0000000000000000e+00  -1.6423475790506145e-03 -3.4402559677400146e-03 0.0000000000000000e+00  -1.6423475790537506e-03 -3.4402559677413113e-03 0.0000000000000000e+00  -1.6423475790449912e-03 -3.4402559677342900e-03 0.0000000000000000e+00  -1.6423475790469377e-03 -3.4402559677365451e-03 0.0000000000000000e+00  -1.6423475790532101e-03 -3.4402559677442603e-03 0.0000000000000000e+00  -1.6423475790489925e-03 -3.4402559677394898e-03 0.0000000000000000e+00  -1.6423475790498575e-03 -3.4402559677453098e-03 0.0000000000000000e+00  -1.6423475790507227e-03 -3.4402559677428725e-03 0.0000000000000000e+00  -1.6423475790519123e-03 -3.4402559677460818e-03 0.0000000000000000e+00  -1.6423475790488843e-03 -3.4402559677416669e-03 0.0000000000000000e+00  -1.6423475790529937e-03 -3.4402559677420919e-03 0.0000000000000000e+00  -1.6423475790498577e-03 -3.4402559677429593e-03 0.0000000000000000e+00  -1.6423475790469377e-03 -3.4402559677368097e-03 0.0000000000000000e+00  -1.6423475790550484e-03 -3.4402559677465154e-03 0.0000000000000000e+00  -1.6423475790512635e-03 -3.4402559677446072e-03 0.0000000000000000e+00  -1.6423475790470459e-03 -3.4402559677382842e-03 0.0000000000000000e+00  -1.6423475790487763e-03 -3.4402559677432195e-03 0.0000000000000000e+00  -1.6423475790507227e-03 -3.4402559677448675e-03 0.0000000000000000e+00  -1.6423475790514797e-03 -3.4402559677412245e-03 0.0000000000000000e+00  -1.6423475790499657e-03 -3.4402559677408776e-03 0.0000000000000000e+00  -1.6423475790496413e-03 -3.4402559677462739e-03 0.0000000000000000e+00  -1.6423475790535345e-03 -3.4402559677494645e-03 0.0000000000000000e+00  -1.6423475790527775e-03 -3.4402559677448675e-03 0.0000000000000000e+00  -1.6423475790499657e-03 -3.4402559677388827e-03 0.0000000000000000e+00  -1.6423475790457484e-03 -3.4402559677367143e-03 0.0000000000000000e+00  -1.6423475790511553e-03 -3.4402559677441736e-03 0.0000000000000000e+00  -1.6423475790471541e-03 -3.4402559677404626e-03 0.0000000000000000e+00  -1.6423475790500739e-03 -3.4402559677453011e-03 0.0000000000000000e+00  -1.6423475790525611e-03 -3.4402559677428725e-03 0.0000000000000000e+00  -1.6423475790461810e-03 -3.4402559677396633e-03 0.0000000000000000e+00  -1.6423475790472623e-03 -3.4402559677384490e-03 0.0000000000000000e+00  -1.6423475790515879e-03 -3.4402559677471226e-03 0.0000000000000000e+00  -1.6423475790508309e-03 -3.4402559677426310e-03 0.0000000000000000e+00  -1.6423475790500739e-03 -3.4402559677449542e-03 0.0000000000000000e+00  -1.6423475790513717e-03 -3.4402559677462552e-03 0.0000000000000000e+00  -1.6423475790494251e-03 -3.4402559677404439e-03 0.0000000000000000e+00  -1.6423475790488843e-03 -3.4402559677422654e-03 0.0000000000000000e+00  -1.6423475790485599e-03 -3.4402559677426990e-03 0.0000000000000000e+00  -1.6423475790483437e-03 -3.4402559677433248e-03 0.0000000000000000e+00  -1.6423475790559134e-03 -3.4402559677464287e-03 0.0000000000000000e+00  -1.6423475790466136e-03 -3.4402559677408776e-03 0.0000000000000000e+00  -1.6423475790516961e-03 -3.4402559677464287e-03 0.0000000000000000e+00  -1.6423475790469380e-03 6.6328383712803960e-04 0.0000000000000000e+00  4.1116200070059612e-04 1.7213440582311381e-03 0.0000000000000000e+00  4.1116200069741301e-04 1.7213440582309646e-03 0.0000000000000000e+00  4.1116200069820882e-04 1.7213440582292303e-03 0.0000000000000000e+00  4.1116200069750143e-04 1.7213440582294032e-03 0.0000000000000000e+00  4.1116200069626354e-04 1.7213440582299236e-03 0.0000000000000000e+00  4.1116200069635196e-04 1.7213440582330474e-03 0.0000000000000000e+00  4.1116200069228463e-04 1.7213440582215093e-03 0.0000000000000000e+00  4.1116200069688246e-04 1.7213440582322668e-03 0.0000000000000000e+00  4.1116200069697087e-04 1.7213440582341749e-03 0.0000000000000000e+00  4.1116200069175407e-04 1.7213440582206419e-03 0.0000000000000000e+00  4.1116200069794351e-04 1.7213440582316596e-03 0.0000000000000000e+00  4.1116200069599829e-04 1.7213440582323535e-03 0.0000000000000000e+00  4.1116200069201938e-04 1.7213440582294890e-03 0.0000000000000000e+00  4.1116200069422985e-04 1.7213440582255859e-03 0.0000000000000000e+00  4.1116200069865090e-04 1.7213440582311413e-03 0.0000000000000000e+00  4.1116200069272671e-04 1.7213440582251522e-03 0.0000000000000000e+00  4.1116200069396460e-04 1.7213440582258461e-03 0.0000000000000000e+00  4.1116200069944665e-04 1.7213440582302740e-03 0.0000000000000000e+00  4.1116200069405301e-04 1.7213440582264533e-03 0.0000000000000000e+00  4.1116200069582146e-04 1.7213440582271471e-03 0.0000000000000000e+00  4.1116200069767826e-04 1.7213440582282791e-03 0.0000000000000000e+00  4.1116200069140041e-04 1.7213440582278410e-03 0.0000000000000000e+00  4.1116200069369935e-04 1.7213440582246318e-03 0.0000000000000000e+00  4.1116200069997720e-04 1.7213440582346108e-03 0.0000000000000000e+00  4.1116200069361093e-04 1.7213440582265400e-03 0.0000000000000000e+00  4.1116200069387618e-04 1.7213440582267135e-03 0.0000000000000000e+00  4.1116200069537932e-04 1.7213440582247185e-03 0.0000000000000000e+00  4.1116200069644037e-04 1.7213440582301829e-03 0.0000000000000000e+00  4.1116200069697087e-04 1.7213440582263761e-03 0.0000000000000000e+00  4.1116200069467199e-04 1.7213440582292288e-03 0.0000000000000000e+00  4.1116200069776668e-04 1.7213440582281880e-03 0.0000000000000000e+00  4.1116200069414143e-04 1.7213440582248920e-03 0.0000000000000000e+00  4.1116200069714776e-04 1.7213440582335656e-03 0.0000000000000000e+00  4.1116200069767826e-04 1.7213440582294023e-03 0.0000000000000000e+00  4.1116200069431826e-04 1.7213440582203913e-03 0.0000000000000000e+00  4.1116200069599829e-04 1.7213440582298360e-03 0.0000000000000000e+00  4.1116200069909298e-04 1.7213440582294890e-03 0.0000000000000000e+00  4.1116200069599829e-04 1.7213440582257594e-03 0.0000000000000000e+00  4.1116200069785510e-04 1.7213440582301829e-03 0.0000000000000000e+00  4.1116200069679404e-04 1.7213440582317442e-03 0.0000000000000000e+00  4.1116200069476040e-04 1.7213440582216056e-03 0.0000000000000000e+00  4.1116200069467199e-04 1.7213440582258461e-03 0.0000000000000000e+00  4.1116200069794351e-04 1.7213440582301829e-03 0.0000000000000000e+00  4.1116200069926982e-04 1.7213440582342595e-03 0.0000000000000000e+00  4.1116200069732459e-04 1.7213440582282747e-03 0.0000000000000000e+00  4.1116200069590987e-04 1.7213440582275808e-03 0.0000000000000000e+00  4.1116200069555615e-04 1.7213440582273302e-03 0.0000000000000000e+00  4.1116200069767826e-04 1.7213440582314840e-03 0.0000000000000000e+00  4.1116200069679404e-04 1.7213440582277543e-03 0.0000000000000000e+00  4.1116200069856248e-04 1.7213440582274941e-03 0.0000000000000000e+00  4.1116200070059612e-04 3.6001194624708495e-04 0.0000000000000000e+00  -8.7888437861017229e-05 -5.1360888002928429e-04 0.0000000000000000e+00  -8.7888437862689462e-05 -5.1360888002997818e-04 0.0000000000000000e+00  -8.7888437863525571e-05 -5.1360888002859051e-04 0.0000000000000000e+00  -8.7888437862793979e-05 -5.1360888003171279e-04 0.0000000000000000e+00  -8.7888437860076602e-05 -5.1360888001748806e-04 0.0000000000000000e+00  -8.7888437862271407e-05 -5.1360888002841725e-04 0.0000000000000000e+00  -8.7888437860390126e-05 -5.1360888002477346e-04 0.0000000000000000e+00  -8.7888437858717907e-05 -5.1360888002286614e-04 0.0000000000000000e+00  -8.7888437858508887e-05 -5.1360888002303961e-04 0.0000000000000000e+00  -8.7888437860494644e-05 -5.1360888002217138e-04 0.0000000000000000e+00  -8.7888437861017229e-05 -5.1360888002737642e-04 0.0000000000000000e+00  -8.7888437857568260e-05 -5.1360888001974363e-04 0.0000000000000000e+00  -8.7888437861330767e-05 -5.1360888002008971e-04 0.0000000000000000e+00  -8.7888437860181106e-05 -5.1360888001557943e-04 0.0000000000000000e+00  -8.7888437858822411e-05 -5.1360888002043817e-04 0.0000000000000000e+00  -8.7888437860599161e-05 -5.1360888001679374e-04 0.0000000000000000e+00  -8.7888437858822411e-05 -5.1360888001852846e-04 0.0000000000000000e+00  -8.7888437860390126e-05 -5.1360888002043817e-04 0.0000000000000000e+00  -8.7888437860494644e-05 -5.1360888001662026e-04 0.0000000000000000e+00  -8.7888437859449500e-05 -5.1360888001436512e-04 0.0000000000000000e+00  -8.7888437860181106e-05 -5.1360888002356068e-04 0.0000000000000000e+00  -8.7888437860599161e-05 -5.1360888001818151e-04 0.0000000000000000e+00  -8.7888437860285623e-05 -5.1360888001523248e-0