<?xml version="1.0"?>
<VTKFile type="UnstructuredGrid"  version="0.1"  >
<UnstructuredGrid>
<Piece  NumberOfPoints="2601" NumberOfCells="5000">
<Points>
<DataArray  type="Float64"  NumberOfComponents="3"  format="ascii">0 0 0  0.02 0 0  0.04 0 0  0.06 0 0  0.08 0 0  0.1 0 0  0.12 0 0  0.14 0 0  0.16 0 0  0.18 0 0  0.2 0 0  0.22 0 0  0.24 0 0  0.26 0 0  0.28 0 0  0.3 0 0  0.32 0 0  0.34 0 0  0.36 0 0  0.38 0 0  0.4 0 0  0.42 0 0  0.44 0 0  0.46 0 0  0.48 0 0  0.5 0 0  0.52 0 0  0.54 0 0  0.5600000000000001 0 0  0.58 0 0  0.6 0 0  0.62 0 0  0.64 0 0  0.66 0 0  0.68 0 0  0.7 0 0  0.72 0 0  0.74 0 0  0.76 0 0  0.78 0 0  0.8 0 0  0.82 0 0  0.84 0 0  0.86 0 0  0.88 0 0  0.9 0 0  0.92 0 0  0.9399999999999999 0 0  0.96 0 0  0.98 0 0  1 0 0  0 0.01313563088723984 0  0.02 0.01313563088723984 0  0.04 0.01313563088723984 0  0.06 0.01313563088723984 0  0.08 0.01313563088723984 0  0.1 0.01313563088723984 0  0.12 0.01313563088723984 0  0.14 0.01313563088723984 0  0.16 0.01313563088723984 0  0.18 0.01313563088723984 0  0.2 0.01313563088723984 0  0.22 0.01313563088723984 0  0.24 0.01313563088723984 0  0.26 0.01313563088723984 0  0.28 0.01313563088723984 0  0.3 0.01313563088723984 0  0.32 0.01313563088723984 0  0.34 0.01313563088723984 0  0.36 0.01313563088723984 0  0.38 0.01313563088723984 0  0.4 0.01313563088723984 0  0.42 0.01313563088723984 0  0.44 0.01313563088723984 0  0.46 0.01313563088723984 0  0.48 0.01313563088723984 0  0.5 0.01313563088723984 0  0.52 0.01313563088723984 0  0.54 0.01313563088723984 0  0.5600000000000001 0.01313563088723984 0  0.58 0.01313563088723984 0  0.6 0.01313563088723984 0  0.62 0.01313563088723984 0  0.64 0.01313563088723984 0  0.66 0.01313563088723984 0  0.68 0.01313563088723984 0  0.7 0.01313563088723984 0  0.72 0.01313563088723984 0  0.74 0.01313563088723984 0  0.76 0.01313563088723984 0  0.78 0.01313563088723984 0  0.8 0.01313563088723984 0  0.82 0.01313563088723984 0  0.84 0.01313563088723984 0  0.86 0.01313563088723984 0  0.88 0.01313563088723984 0  0.9 0.01313563088723984 0  0.92 0.01313563088723984 0  0.9399999999999999 0.01313563088723984 0  0.96 0.01313563088723984 0  0.98 0.01313563088723984 0  1 0.01313563088723984 0  0 0.02664639863733726 0  0.02 0.02664639863733726 0  0.04 0.02664639863733726 0  0.06 0.02664639863733726 0  0.08 0.02664639863733726 0  0.1 0.02664639863733726 0  0.12 0.02664639863733726 0  0.14 0.02664639863733726 0  0.16 0.02664639863733726 0  0.18 0.02664639863733726 0  0.2 0.02664639863733726 0  0.22 0.02664639863733726 0  0.24 0.02664639863733726 0  0.26 0.02664639863733726 0  0.28 0.02664639863733726 0  0.3 0.02664639863733726 0  0.32 0.02664639863733726 0  0.34 0.02664639863733726 0  0.36 0.02664639863733726 0  0.38 0.02664639863733726 0  0.4 0.02664639863733726 0  0.42 0.02664639863733726 0  0.44 0.02664639863733726 0  0.46 0.02664639863733726 0  0.48 0.02664639863733726 0  0.5 0.02664639863733726 0  0.52 0.02664639863733726 0  0.54 0.02664639863733726 0  0.5600000000000001 0.02664639863733726 0  0.58 0.02664639863733726 0  0.6 0.02664639863733726 0  0.62 0.02664639863733726 0  0.64 0.02664639863733726 0  0.66 0.02664639863733726 0  0.68 0.02664639863733726 0  0.7 0.02664639863733726 0  0.72 0.02664639863733726 0  0.74 0.02664639863733726 0  0.76 0.02664639863733726 0  0.78 0.02664639863733726 0  0.8 0.02664639863733726 0  0.82 0.02664639863733726 0  0.84 0.02664639863733726 0  0.86 0.02664639863733726 0  0.88 0.02664639863733726 0  0.9 0.02664639863733726 0  0.92 0.02664639863733726 0  0.9399999999999999 0.02664639863733726 0  0.96 0.02664639863733726 0  0.98 0.02664639863733726 0  1 0.02664639863733726 0  0 0.04101652939099896 0  0.02 0.04101652939099896 0  0.04 0.04101652939099896 0  0.06 0.04101652939099896 0  0.08 0.04101652939099896 0  0.1 0.04101652939099896 0  0.12 0.04101652939099896 0  0.14 0.04101652939099896 0  0.16 0.04101652939099896 0  0.18 0.04101652939099896 0  0.2 0.04101652939099896 0  0.22 0.04101652939099896 0  0.24 0.04101652939099896 0  0.26 0.04101652939099896 0  0.28 0.04101652939099896 0  0.3 0.04101652939099896 0  0.32 0.04101652939099896 0  0.34 0.04101652939099896 0  0.36 0.04101652939099896 0  0.38 0.04101652939099896 0  0.4 0.04101652939099896 0  0.42 0.04101652939099896 0  0.44 0.04101652939099896 0  0.46 0.04101652939099896 0  0.48 0.04101652939099896 0  0.5 0.04101652939099896 0  0.52 0.04101652939099896 0  0.54 0.04101652939099896 0  0.5600000000000001 0.04101652939099896 0  0.58 0.04101652939099896 0  0.6 0.04101652939099896 0  0.62 0.04101652939099896 0  0.64 0.04101652939099896 0  0.66 0.04101652939099896 0  0.68 0.04101652939099896 0  0.7 0.04101652939099896 0  0.72 0.04101652939099896 0  0.74 0.04101652939099896 0  0.76 0.04101652939099896 0  0.78 0.04101652939099896 0  0.8 0.04101652939099896 0  0.82 0.04101652939099896 0  0.84 0.04101652939099896 0  0.86 0.04101652939099896 0  0.88 0.04101652939099896 0  0.9 0.04101652939099896 0  0.92 0.04101652939099896 0  0.9399999999999999 0.04101652939099896 0  0.96 0.04101652939099896 0  0.98 0.04101652939099896 0  1 0.04101652939099896 0  0 0.05705811164099547 0  0.02 0.05705811164099547 0  0.04 0.05705811164099547 0  0.06 0.05705811164099547 0  0.08 0.05705811164099547 0  0.1 0.05705811164099547 0  0.12 0.05705811164099547 0  0.14 0.05705811164099547 0  0.16 0.05705811164099547 0  0.18 0.05705811164099547 0  0.2 0.05705811164099547 0  0.22 0.05705811164099547 0  0.24 0.05705811164099547 0  0.26 0.05705811164099547 0  0.28 0.05705811164099547 0  0.3 0.05705811164099547 0  0.32 0.05705811164099547 0  0.34 0.05705811164099547 0  0.36 0.05705811164099547 0  0.38 0.05705811164099547 0  0.4 0.05705811164099547 0  0.42 0.05705811164099547 0  0.44 0.05705811164099547 0  0.46 0.05705811164099547 0  0.48 0.05705811164099547 0  0.5 0.05705811164099547 0  0.52 0.05705811164099547 0  0.54 0.05705811164099547 0  0.5600000000000001 0.05705811164099547 0  0.58 0.05705811164099547 0  0.6 0.05705811164099547 0  0.62 0.05705811164099547 0  0.64 0.05705811164099547 0  0.66 0.05705811164099547 0  0.68 0.05705811164099547 0  0.7 0.05705811164099547 0  0.72 0.05705811164099547 0  0.74 0.05705811164099547 0  0.76 0.05705811164099547 0  0.78 0.05705811164099547 0  0.8 0.05705811164099547 0  0.82 0.05705811164099547 0  0.84 0.05705811164099547 0  0.86 0.05705811164099547 0  0.88 0.05705811164099547 0  0.9 0.05705811164099547 0  0.92 0.05705811164099547 0  0.9399999999999999 0.05705811164099547 0  0.96 0.05705811164099547 0  0.98 0.05705811164099547 0  1 0.05705811164099547 0  0 0.07667714377545 0  0.02 0.07667714377545 0  0.04 0.07667714377545 0  0.06 0.07667714377545 0  0.08 0.07667714377545 0  0.1 0.07667714377545 0  0.12 0.07667714377545 0  0.14 0.07667714377545 0  0.16 0.07667714377545 0  0.18 0.07667714377545 0  0.2 0.07667714377545 0  0.22 0.07667714377545 0  0.24 0.07667714377545 0  0.26 0.07667714377545 0  0.28 0.07667714377545 0  0.3 0.07667714377545 0  0.32 0.07667714377545 0  0.34 0.07667714377545 0  0.36 0.07667714377545 0  0.38 0.07667714377545 0  0.4 0.07667714377545 0  0.42 0.07667714377545 0  0.44 0.07667714377545 0  0.46 0.07667714377545 0  0.48 0.07667714377545 0  0.5 0.07667714377545 0  0.52 0.07667714377545 0  0.54 0.07667714377545 0  0.5600000000000001 0.07667714377545 0  0.58 0.07667714377545 0  0.6 0.07667714377545 0  0.62 0.07667714377545 0  0.64 0.07667714377545 0  0.66 0.07667714377545 0  0.68 0.07667714377545 0  0.7 0.07667714377545 0  0.72 0.07667714377545 0  0.74 0.07667714377545 0  0.76 0.07667714377545 0  0.78 0.07667714377545 0  0.8 0.07667714377545 0  0.82 0.07667714377545 0  0.84 0.07667714377545 0  0.86 0.07667714377545 0  0.88 0.07667714377545 0  0.9 0.07667714377545 0  0.92 0.07667714377545 0  0.9399999999999999 0.07667714377545 0  0.96 0.07667714377545 0  0.98 0.07667714377545 0  1 0.07667714377545 0  0 0.1098730133816912 0  0.02 0.1098730133816912 0  0.04 0.1098730133816912 0  0.06 0.1098730133816912 0  0.08 0.1098730133816912 0  0.1 0.1098730133816912 0  0.12 0.1098730133816912 0  0.14 0.1098730133816912 0  0.16 0.1098730133816912 0  0.18 0.1098730133816912 0  0.2 0.1098730133816912 0  0.22 0.1098730133816912 0  0.24 0.1098730133816912 0  0.26 0.1098730133816912 0  0.28 0.1098730133816912 0  0.3 0.1098730133816912 0  0.32 0.1098730133816912 0  0.34 0.1098730133816912 0  0.36 0.1098730133816912 0  0.38 0.1098730133816912 0  0.4 0.1098730133816912 0  0.42 0.1098730133816912 0  0.44 0.1098730133816912 0  0.46 0.1098730133816912 0  0.48 0.1098730133816912 0  0.5 0.1098730133816912 0  0.52 0.1098730133816912 0  0.54 0.1098730133816912 0  0.5600000000000001 0.1098730133816912 0  0.58 0.1098730133816912 0  0.6 0.1098730133816912 0  0.62 0.1098730133816912 0  0.64 0.1098730133816912 0  0.66 0.1098730133816912 0  0.68 0.1098730133816912 0  0.7 0.1098730133816912 0  0.72 0.1098730133816912 0  0.74 0.1098730133816912 0  0.76 0.1098730133816912 0  0.78 0.1098730133816912 0  0.8 0.1098730133816912 0  0.82 0.1098730133816912 0  0.84 0.1098730133816912 0  0.86 0.1098730133816912 0  0.88 0.1098730133816912 0  0.9 0.1098730133816912 0  0.92 0.1098730133816912 0  0.9399999999999999 0.1098730133816912 0  0.96 0.1098730133816912 0  0.98 0.1098730133816912 0  1 0.1098730133816912 0  0 0.1603283563168221 0  0.02 0.1603283563168221 0  0.04 0.1603283563168221 0  0.06 0.1603283563168221 0  0.08 0.1603283563168221 0  0.1 0.1603283563168221 0  0.12 0.1603283563168221 0  0.14 0.1603283563168221 0  0.16 0.1603283563168221 0  0.18 0.1603283563168221 0  0.2 0.1603283563168221 0  0.22 0.1603283563168221 0  0.24 0.1603283563168221 0  0.26 0.1603283563168221 0  0.28 0.1603283563168221 0  0.3 0.1603283563168221 0  0.32 0.1603283563168221 0  0.34 0.1603283563168221 0  0.36 0.1603283563168221 0  0.38 0.1603283563168221 0  0.4 0.1603283563168221 0  0.42 0.1603283563168221 0  0.44 0.1603283563168221 0  0.46 0.1603283563168221 0  0.48 0.1603283563168221 0  0.5 0.1603283563168221 0  0.52 0.1603283563168221 0  0.54 0.1603283563168221 0  0.5600000000000001 0.1603283563168221 0  0.58 0.1603283563168221 0 
[...]
<PointData  Vectors="u_paraw"> 
<DataArray  type="Float64"  Name="u_paraw"  NumberOfComponents="3" format="ascii">8.3616803816390667e-06 1.5417607047215221e-04 0.0000000000000000e+00  8.3616803770498964e-06 1.5417607048163898e-04 0.0000000000000000e+00  8.3616803836365093e-06 1.5417607049280626e-04 0.0000000000000000e+00  8.3616803918243821e-06 1.5417607049123414e-04 0.0000000000000000e+00  8.3616803606741542e-06 1.5417607047602279e-04 0.0000000000000000e+00  8.3616803869380709e-06 1.5417607050422297e-04 0.0000000000000000e+00  8.3616803666664854e-06 1.5417607047841876e-04 0.0000000000000000e+00  8.3616803786511529e-06 1.5417607047783349e-04 0.0000000000000000e+00  8.3616803644709472e-06 1.5417607048173661e-04 0.0000000000000000e+00  8.3616803812428772e-06 1.5417607048320010e-04 0.0000000000000000e+00  8.3616803736327791e-06 1.5417607047620718e-04 0.0000000000000000e+00  8.3616803871031492e-06 1.5417607048471817e-04 0.0000000000000000e+00  8.3616803668645793e-06 1.5417607045617094e-04 0.0000000000000000e+00  8.3616803755146695e-06 1.5417607048563955e-04 0.0000000000000000e+00  8.3616803778917929e-06 1.5417607047642427e-04 0.0000000000000000e+00  8.3616803754156225e-06 1.5417607046277373e-04 0.0000000000000000e+00  8.3616803866409301e-06 1.5417607048085822e-04 0.0000000000000000e+00  8.3616803793774955e-06 1.5417607047213083e-04 0.0000000000000000e+00  8.3616803928313569e-06 1.5417607047991496e-04 0.0000000000000000e+00  8.3616803793444798e-06 1.5417607048167137e-04 0.0000000000000000e+00  8.3616803820187441e-06 1.5417607046587498e-04 0.0000000000000000e+00  8.3616803792289259e-06 1.5417607047540468e-04 0.0000000000000000e+00  8.3616803789152781e-06 1.5417607046252436e-04 0.0000000000000000e+00  8.3616803837520649e-06 1.5417607048215970e-04 0.0000000000000000e+00  8.3616803752670530e-06 1.5417607048813322e-04 0.0000000000000000e+00  8.3616803677229862e-06 1.5417607046920305e-04 0.0000000000000000e+00  8.3616803874498126e-06 1.5417607047847297e-04 0.0000000000000000e+00  8.3616803665839471e-06 1.5417607048305915e-04 0.0000000000000000e+00  8.3616803738969043e-06 1.5417607047673909e-04 0.0000000000000000e+00  8.3616803896453508e-06 1.5417607047956802e-04 0.0000000000000000e+00  8.3616803764886303e-06 1.5417607046856337e-04 0.0000000000000000e+00  8.3616803820682684e-06 1.5417607047209787e-04 0.0000000000000000e+00  8.3616803758283173e-06 1.5417607047461321e-04 0.0000000000000000e+00  8.3616803743095991e-06 1.5417607047119798e-04 0.0000000000000000e+00  8.3616803702651879e-06 1.5417607046506223e-04 0.0000000000000000e+00  8.3616803739959513e-06 1.5417607048414335e-04 0.0000000000000000e+00  8.3616803831082606e-06 1.5417607048097748e-04 0.0000000000000000e+00  8.3616803738308730e-06 1.5417607048368799e-04 0.0000000000000000e+00  8.3616803790638476e-06 1.5417607047890666e-04 0.0000000000000000e+00  8.3616803760924425e-06 1.5417607046708885e-04 0.0000000000000000e+00  8.3616803756137164e-06 1.5417607047200113e-04 0.0000000000000000e+00  8.3616803765546616e-06 1.5417607047334470e-04 0.0000000000000000e+00  8.3616803690436105e-06 1.5417607048104253e-04 0.0000000000000000e+00  8.3616803820022371e-06 1.5417607048219179e-04 0.0000000000000000e+00  8.3616803853863370e-06 1.5417607048066306e-04 0.0000000000000000e+00  8.3616803734346869e-06 1.5417607047196776e-04 0.0000000000000000e+00  8.3616803718994600e-06 1.5417607048298410e-04 0.0000000000000000e+00  8.3616803735337322e-06 1.5417607047072093e-04 0.0000000000000000e+00  8.3616803823654093e-06 1.5417607048322178e-04 0.0000000000000000e+00  8.3616803745572173e-06 1.5417607048254957e-04 0.0000000000000000e+00  8.3616803816390650e-06 6.6175896587676214e-15 0.0000000000000000e+00  2.2120178576530667e-05 3.2589029727921477e-04 0.0000000000000000e+00  2.2120178594794943e-05 3.2589029728439725e-04 0.0000000000000000e+00  2.2120178589819614e-05 3.2589029727821741e-04 0.0000000000000000e+00  2.2120178586706023e-05 3.2589029728500441e-04 0.0000000000000000e+00  2.2120178579162781e-05 3.2589029728326968e-04 0.0000000000000000e+00  2.2120178581666495e-05 3.2589029727893309e-04 0.0000000000000000e+00  2.2120178574636833e-05 3.2589029727262260e-04 0.0000000000000000e+00  2.2120178588246769e-05 3.2589029727342534e-04 0.0000000000000000e+00  2.2120178576434373e-05 3.2589029727702489e-04 0.0000000000000000e+00  2.2120178590943078e-05 3.2589029727700278e-04 0.0000000000000000e+00  2.2120178586288737e-05 3.2589029727971372e-04 0.0000000000000000e+00  2.2120178586834419e-05 3.2589029729545633e-04 0.0000000000000000e+00  2.2120178575278813e-05 3.2589029725230465e-04 0.0000000000000000e+00  2.2120178605901168e-05 3.2589029729192140e-04 0.0000000000000000e+00  2.2120178566644207e-05 3.2589029727980094e-04 0.0000000000000000e+00  2.2120178580575131e-05 3.2589029727049756e-04 0.0000000000000000e+00  2.2120178599962871e-05 3.2589029728146969e-04 0.0000000000000000e+00  2.2120178595757915e-05 3.2589029729502314e-04 0.0000000000000000e+00  2.2120178595276431e-05 3.2589029727212387e-04 0.0000000000000000e+00  2.2120178583592428e-05 3.2589029727936634e-04 0.0000000000000000e+00  2.2120178578970186e-05 3.2589029726761451e-04 0.0000000000000000e+00  2.2120178595244332e-05 3.2589029727322975e-04 0.0000000000000000e+00  2.2120178589434431e-05 3.2589029727455248e-04 0.0000000000000000e+00  2.2120178589338134e-05 3.2589029727960578e-04 0.0000000000000000e+00  2.2120178586641824e-05 3.2589029728630523e-04 0.0000000000000000e+00  2.2120178584073912e-05 3.2589029730276342e-04 0.0000000000000000e+00  2.2120178591745550e-05 3.2589029729571611e-04 0.0000000000000000e+00  2.2120178585871451e-05 3.2589029728465724e-04 0.0000000000000000e+00  2.2120178584202309e-05 3.2589029728062580e-04 0.0000000000000000e+00  2.2120178585871451e-05 3.2589029727357670e-04 0.0000000000000000e+00  2.2120178590301102e-05 3.2589029726325509e-04 0.0000000000000000e+00  2.2120178588567760e-05 3.2589029727752319e-04 0.0000000000000000e+00  2.2120178593446792e-05 3.2589029729031678e-04 0.0000000000000000e+00  2.2120178579772658e-05 3.2589029726223594e-04 0.0000000000000000e+00  2.2120178587636892e-05 3.2589029727325323e-04 0.0000000000000000e+00  2.2120178594602355e-05 3.2589029729510895e-04 0.0000000000000000e+00  2.2120178591617157e-05 3.2589029727826045e-04 0.0000000000000000e+00  2.2120178580382539e-05 3.2589029727878087e-04 0.0000000000000000e+00  2.2120178588150475e-05 3.2589029727945307e-04 0.0000000000000000e+00  2.2120178589851717e-05 3.2589029727318639e-04 0.0000000000000000e+00  2.2120178588343066e-05 3.2589029726885137e-04 0.0000000000000000e+00  2.2120178592387530e-05 3.2589029726731001e-04 0.0000000000000000e+00  2.2120178586962813e-05 3.2589029728426693e-04 0.0000000000000000e+00  2.2120178591681352e-05 3.2589029728008191e-04 0.0000000000000000e+00  2.2120178584073912e-05 3.2589029727511627e-04 0.0000000000000000e+00  2.2120178582404769e-05 3.2589029728450546e-04 0.0000000000000000e+00  2.2120178582533166e-05 3.2589029727821887e-04 0.0000000000000000e+00  2.2120178590140606e-05 3.2589029727225397e-04 0.0000000000000000e+00  2.2120178595340629e-05 3.2589029728825680e-04 0.0000000000000000e+00  2.2120178585422066e-05 3.2589029729200813e-04 0.0000000000000000e+00  2.2120178576530670e-05 2.8246078141287235e-04 0.0000000000000000e+00  1.1628380400905089e-05 -1.4833611539349228e-05 0.0000000000000000e+00  1.1628380409838169e-05 -1.4833611552359655e-05 0.0000000000000000e+00  1.1628380399335764e-05 -1.4833611558257716e-05 0.0000000000000000e+00  1.1628380409536377e-05 -1.4833611549323883e-05 0.0000000000000000e+00  1.1628380394567431e-05 -1.4833611548196313e-05 0.0000000000000000e+00  1.1628380388772999e-05 -1.4833611554441331e-05 0.0000000000000000e+00  1.1628380402776207e-05 -1.4833611554354573e-05 0.0000000000000000e+00  1.1628380401206882e-05 -1.4833611542992156e-05 0.0000000000000000e+00  1.1628380396679984e-05 -1.4833611561813906e-05 0.0000000000000000e+00  1.1628380412071440e-05 -1.4833611544726858e-05 0.0000000000000000e+00  1.1628380382556058e-05 -1.4833611560122551e-05 0.0000000000000000e+00  1.1628380406940954e-05 -1.4833611572265615e-05 0.0000000000000000e+00  1.1628380405431987e-05 -1.4833611548586617e-05 0.0000000000000000e+00  1.1628380411648929e-05 -1.4833611568839514e-05 0.0000000000000000e+00  1.1628380403923022e-05 -1.4833611540173251e-05 0.0000000000000000e+00  1.1628380405431987e-05 -1.4833611553747420e-05 0.0000000000000000e+00  1.1628380412131797e-05 -1.4833611563548607e-05 0.0000000000000000e+00  1.1628380417322642e-05 -1.4833611532887412e-05 0.0000000000000000e+00  1.1628380390644118e-05 -1.4833611563765448e-05 0.0000000000000000e+00  1.1628380408630997e-05 -1.4833611552489745e-05 0.0000000000000000e+00  1.1628380404586967e-05 -1.4833611535185921e-05 0.0000000000000000e+00  1.1628380402051904e-05 -1.4833611552229537e-05 0.0000000000000000e+00  1.1628380411166060e-05 -1.4833611534622093e-05 0.0000000000000000e+00  1.1628380409838169e-05 -1.4833611551145377e-05 0.0000000000000000e+00  1.1628380399094329e-05 -1.4833611549757556e-05 0.0000000000000000e+00  1.1628380409536377e-05 -1.4833611536356817e-05 0.0000000000000000e+00  1.1628380396981776e-05 -1.4833611541951300e-05 0.0000000000000000e+00  1.1628380399577199e-05 -1.4833611544770226e-05 0.0000000000000000e+00  1.1628380396136754e-05 -1.4833611549237222e-05 0.0000000000000000e+00  1.1628380387746903e-05 -1.4833611570747710e-05 0.0000000000000000e+00  1.1628380405130194e-05 -1.4833611554658150e-05 0.0000000000000000e+00  1.1628380401991544e-05 -1.4833611567972152e-05 0.0000000000000000e+00  1.1628380413580405e-05 -1.4833611553660684e-05 0.0000000000000000e+00  1.1628380385936143e-05 -1.4833611554007628e-05 0.0000000000000000e+00  1.1628380390825194e-05 -1.4833611557303686e-05 0.0000000000000000e+00  1.1628380395533169e-05 -1.4833611553530579e-05 0.0000000000000000e+00  1.1628380394265636e-05 -1.4833611562767982e-05 0.0000000000000000e+00  1.1628380408510279e-05 -1.4833611567364999e-05 0.0000000000000000e+00  1.1628380418469457e-05 -1.4833611535229247e-05 0.0000000000000000e+00  1.1628380400542937e-05 -1.4833611549410611e-05 0.0000000000000000e+00  1.1628380396981776e-05 -1.4833611551535730e-05 0.0000000000000000e+00  1.1628380397223211e-05 -1.4833611562507773e-05 0.0000000000000000e+00  1.1628380413459689e-05 -1.4833611549714188e-05 0.0000000000000000e+00  1.1628380398732177e-05 -1.4833611560556209e-05 0.0000000000000000e+00  1.1628380400422219e-05 -1.4833611552012696e-05 0.0000000000000000e+00  1.1628380391851291e-05 -1.4833611557216867e-05 0.0000000000000000e+00  1.1628380400422219e-05 -1.4833611537701311e-05 0.0000000000000000e+00  1.1628380389255869e-05 -1.4833611553573947e-05 0.0000000000000000e+00  1.1628380407484182e-05 -1.4833611558344437e-05 0.0000000000000000e+00  1.1628380412735385e-05 -1.4833611545420747e-05 0.0000000000000000e+00  1.1628380400905089e-05 2.9600719371849181e-04 0.0000000000000000e+00  -4.3992850888114520e-05 -3.5016058469207467e-04 0.0000000000000000e+00  -4.3992850904551675e-05 -3.5016058473639686e-04 0.0000000000000000e+00  -4.3992850897738908e-05 -3.5016058473058559e-04 0.0000000000000000e+00  -4.3992850892007531e-05 -3.5016058471002901e-04 0.0000000000000000e+00  -4.3992850891250561e-05 -3.5016058473162631e-04 0.0000000000000000e+00  -4.3992850873299453e-05 -3.5016058470664651e-04 0.0000000000000000e+00  -4.3992850900226108e-05 -3.5016058470716644e-04 0.0000000000000000e+00  -4.3992850903254000e-05 -3.5016058472728972e-04 0.0000000000000000e+00  -4.3992850874056422e-05 -3.5016058469406977e-04 0.0000000000000000e+00  -4.3992850899685417e-05 -3.5016058472668208e-04 0.0000000000000000e+00  -4.3992850892764500e-05 -3.5016058471419256e-04 0.0000000000000000e+00  -4.3992850875570375e-05 -3.5016058472026409e-04 0.0000000000000000e+00  -4.3992850897198216e-05 -3.5016058471861562e-04 0.0000000000000000e+00  -4.3992850894494731e-05 -3.5016058472494736e-04 0.0000000000000000e+00  -4.3992850880977332e-05 -3.5016058471228485e-04 0.0000000000000000e+00  -4.3992850900117973e-05 -3.5016058472997805e-04 0.0000000000000000e+00  -4.3992850891466839e-05 -3.5016058473431486e-04 0.0000000000000000e+00  -4.3992850874056422e-05 -3.5016058471783597e-04 0.0000000000000000e+00  -4.3992850902388895e-05 -3.5016058471766152e-04 0.0000000000000000e+00  -4.3992850892980785e-05 -3.5016058472165138e-04 0.0000000000000000e+00  -4.3992850873840144e-05 -3.5016058471800944e-04 0.0000000000000000e+00  -4.3992850894170317e-05 -3.5016058471002874e-04 0.0000000000000000e+00  -4.3992850899360996e-05 -3.5016058472321263e-04 0.0000000000000000e+00  -4.3992850888114520e-05 -3.5016058471081034e-04 0.0000000000000000e+00  -4.3992850893954039e-05 -3.5016058471618700e-04 0.0000000000000000e+00  -4.3992850879787806e-05 -3.5016058470760012e-04 0.0000000000000000e+00  -4.3992850910715608e-05 -3.5016058472000339e-04 0.0000000000000000e+00  -4.3992850907038876e-05 -3.5016058472260548e-04 0.0000000000000000e+00  -4.3992850907579574e-05 -3.5016058473501070e-04 0.0000000000000000e+00  -4.3992850898279606e-05 -3.5016058473292708e-04 0.0000000000000000e+00  -4.3992850887357550e-05 -3.5016058470005408e-04 0.0000000000000000e+00  -4.3992850888222662e-05 -3.5016058471870235e-04 0.0000000000000000e+00  -4.3992850888114520e-05 -3.5016058472260548e-04 0.0000000000000000e+00  -4.3992850897414494e-05 -3.5016058472711576e-04 0.0000000000000000e+00  -4.3992850886384296e-05 -3.5016058472520952e-04 0.0000000000000000e+00  -4.3992850891142418e-05 -3.5016058470586540e-04 0.0000000000000000e+00  -4.3992850907903994e-05 -3.5016058472833007e-04 0.0000000000000000e+00  -4.3992850885951740e-05 -3.5016058471132978e-04 0.0000000000000000e+00  -4.3992850884005231e-05 -3.5016058471826867e-04 0.0000000000000000e+00  -4.3992850900983085e-05 -3.5016058472277895e-04 0.0000000000000000e+00  -4.3992850888763360e-05 -3.5016058472902591e-04 0.0000000000000000e+00  -4.3992850893197063e-05 -3.5016058471618700e-04 0.0000000000000000e+00  -4.3992850885735462e-05 -3.5016058472503409e-04 0.0000000000000000e+00  -4.3992850876976185e-05 -3.5016058470924811e-04 0.0000000000000000e+00  -4.3992850889412194e-05 -3.5016058471688089e-04 0.0000000000000000e+00  -4.3992850890385442e-05 -3.5016058472312590e-04 0.0000000000000000e+00  -4.3992850883248261e-05 -3.5016058472035229e-04 0.0000000000000000e+00  -4.3992850904119119e-05 -3.5016058472026360e-04 0.0000000000000000e+00  -4.3992850887033130e-05 -3.5016058472000339e-04 0.0000000000000000e+00  -4.3992850878814552e-05 -3.5016058471575332e-04 0.0000000000000000e+00  -4.3992850888114520e-05 -3.5777691488292823e-04 0.0000000000000000e+00  6.3465408022787476e-05 3.4099361282237736e-04 0.0000000000000000e+00  6.3465408026324292e-05 3.4099361284492877e-04 0.0000000000000000e+00  6.3465408022433809e-05 3.4099361283252560e-04 0.0000000000000000e+00  6.3465408018720146e-05 3.4099361280832610e-04 0.0000000000000000e+00  6.3465408024555891e-05 3.4099361284570939e-04 0.0000000000000000e+00  6.3465408008993890e-05 3.4099361283356649e-04 0.0000000000000000e+00  6.3465408002450784e-05 3.4099361282055569e-04 0.0000000000000000e+00  6.3465408006164434e-05 3.4099361284770449e-04 0.0000000000000000e+00  6.3465408002362354e-05 3.4099361284536261e-04 0.0000000000000000e+00  6.3465407997499233e-05 3.4099361282020874e-04 0.0000000000000000e+00  6.3465408010408625e-05 3.4099361284562282e-04 0.0000000000000000e+00  6.3465407994492943e-05 3.4099361283859719e-04 0.0000000000000000e+00  6.3465408006341281e-05 3.4099361281951485e-04 0.0000000000000000e+00  6.3465408006341281e-05 3.4099361283131097e-04 0.0000000000000000e+00  6.3465408003158144e-05 3.4099361282862302e-04 0.0000000000000000e+00  6.3465408007844432e-05 3.4099361281257596e-04 0.0000000000000000e+00  6.3465408036669492e-05 3.4099361284917862e-04 0.0000000000000000e+00  6.3465408009612834e-05 3.4099361280841349e-04 0.0000000000000000e+00  6.3465408017482258e-05 3.4099361281942812e-04 0.0000000000000000e+00  6.3465408021549601e-05 3.4099361284024480e-04 0.0000000000000000e+00  6.3465408009966514e-05 3.4099361281439829e-04 0.0000000000000000e+00  6.3465408016686467e-05 3.4099361282766805e-04 0.0000000000000000e+00  6.3465408011381249e-05 3.4099361281222901e-04 0.0000000000000000e+00  6.3465408027827444e-05 3.4099361283720990e-04 0.0000000000000000e+00  6.3465408005987600e-05 3.4099361283790292e-04 0.0000000000000000e+00  6.3465408005191810e-05 3.4099361282393840e-04 0.0000000000000000e+00  6.3465407994139263e-05 3.4099361281734645e-04 0.0000000000000000e+00  6.3465408030833747e-05 3.4099361283252528e-04 0.0000000000000000e+00  6.3465408037465269e-05 3.4099361283989975e-04 0.0000000000000000e+00  6.3465408033840036e-05 3.4099361284328056e-04 0.0000000000000000e+00  6.3465408016421203e-05 3.4099361281387700e-04 0.0000000000000000e+00  6.3465408013326497e-05 3.4099361282619354e-04 0.0000000000000000e+00  6.3465408014564385e-05 3.4099361282792826e-04 0.0000000000000000e+00  6.3465408028269554e-05 3.4099361283764271e-04 0.0000000000000000e+00  6.3465408029242179e-05 3.4099361283859871e-04 0.0000000000000000e+00  6.3465408025616932e-05 3.4099361282012201e-04 0.0000000000000000e+00  6.3465408020488547e-05 3.4099361283720903e-04 0.0000000000000000e+00  6.3465408017835938e-05 3.4099361281344332e-04 0.0000000000000000e+00  6.3465408014829635e-05 3.4099361282445881e-04 0.0000000000000000e+00  6.3465408022433795e-05 3.4099361283764271e-04 0.0000000000000000e+00  6.3465408013149650e-05 3.4099361284414982e-04 0.0000000000000000e+00  6.3465408021461171e-05 3.4099361279800428e-04 0.0000000000000000e+00  6.3465408022522226e-05 3.4099361283764271e-04 0.0000000000000000e+00  6.3465408033221092e-05 3.4099361283304570e-04 0.0000000000000000e+00  6.3465408022522226e-05 3.4099361283642841e-04 0.0000000000000000e+00  6.3465408032071621e-05 3.4099361285342870e-04 0.0000000000000000e+00  6.3465408004661296e-05 3.4099361282012390e-04 0.0000000000000000e+00  6.3465408013857011e-05 3.4099361282914257e-04 0.0000000000000000e+00  6.3465408031983204e-05 3.4099361284770411e-04 0.0000000000000000e+00  6.3465408013591761e-05 3.4099361282602007e-04 0.0000000000000000e+00  6.3465408022787476e-05 -1.2612124421721466e-04 0.0000000000000000e+00  -1.1407910599050014e-04 -7.9906290620639780e-04 0.0000000000000000e+00  -1.1407910598600601e-04 -7.9906290617829528e-04 0.0000000000000000e+00  -1.1407910601140301e-04 -7.9906290621750014e-04 0.0000000000000000e+00  -1.1407910600910371e-04 -7.9906290620934673e-04 0.0000000000000000e+00  -1.1407910603491876e-04 -7.9906290621437742e-04 0.0000000000000000e+00  -1.1407910604014448e-04 -7.9906290624091924e-04 0.0000000000000000e+00  -1.1407910602655760e-04 -7.9906290624698947e-04 0.0000000000000000e+00  -1.1407910600973080e-04 -7.9906290621194935e-04 0.0000000000000000e+00  -1.1407910600941724e-04 -7.9906290626277675e-04 0.0000000000000000e+00  -1.1407910598558794e-04 -7.9906290622894834e-04 0.0000000000000000e+00  -1.1407910600168318e-04 -7.9906290622738839e-04 0.0000000000000000e+00  -1.1407910599290396e-04 -7.9906290622756187e-04 0.0000000000000000e+00  -1.1407910598036223e-04 -7.9906290622270334e-04 0.0000000000000000e+00  -1.1407910600408699e-04 -7.9906290623189737e-04 0.0000000000000000e+00  -1.1407910600210122e-04 -7.9906290622669548e-04 0.0000000000000000e+00  -1.1407910601328427e-04 -7.9906290623311168e-04 0.0000000000000000e+00  -1.1407910599583036e-04 -7.9906290620015193e-04 0.0000000000000000e+00  -1.1407910601694227e-04 -7.9906290622270562e-04 0.0000000000000000e+00  -1.1407910600460957e-04 -7.9906290621108069e-04 0.0000000000000000e+00  -1.1407910600931271e-04 -7.9906290621541750e-04 0.0000000000000000e+00  -1.1407910602269056e-04 -7.9906290623693035e-04 0.0000000000000000e+00  -1.1407910600701341e-04 -7.9906290621854000e-04 0.0000000000000000e+00  -1.1407910602101833e-04 -7.9906290621784611e-04 0.0000000000000000e+00  -1.1407910601297072e-04 -7.9906290621854228e-04 0.0000000000000000e+00  -1.1407910601537456e-04 -7.9906290623068307e-04 0.0000000000000000e+00  -1.1407910600805855e-04 -7.9906290623207085e-04 0.0000000000000000e+00  -1.14079106