<?xml version="1.0"?>
<VTKFile type="UnstructuredGrid"  version="0.1"  >
<UnstructuredGrid>
<Piece  NumberOfPoints="2601" NumberOfCells="5000">
<Points>
<DataArray  type="Float64"  NumberOfComponents="3"  format="ascii">0 0 0  0.02 0 0  0.04 0 0  0.06 0 0  0.08 0 0  0.1 0 0  0.12 0 0  0.14 0 0  0.16 0 0  0.18 0 0  0.2 0 0  0.22 0 0  0.24 0 0  0.26 0 0  0.28 0 0  0.3 0 0  0.32 0 0  0.34 0 0  0.36 0 0  0.38 0 0  0.4 0 0  0.42 0 0  0.44 0 0  0.46 0 0  0.48 0 0  0.5 0 0  0.52 0 0  0.54 0 0  0.5600000000000001 0 0  0.58 0 0  0.6 0 0  0.62 0 0  0.64 0 0  0.66 0 0  0.68 0 0  0.7 0 0  0.72 0 0  0.74 0 0  0.76 0 0  0.78 0 0  0.8 0 0  0.82 0 0  0.84 0 0  0.86 0 0  0.88 0 0  0.9 0 0  0.92 0 0  0.9399999999999999 0 0  0.96 0 0  0.98 0 0  1 0 0  0 0.01313563088723984 0  0.02 0.01313563088723984 0  0.04 0.01313563088723984 0  0.06 0.01313563088723984 0  0.08 0.01313563088723984 0  0.1 0.01313563088723984 0  0.12 0.01313563088723984 0  0.14 0.01313563088723984 0  0.16 0.01313563088723984 0  0.18 0.01313563088723984 0  0.2 0.01313563088723984 0  0.22 0.01313563088723984 0  0.24 0.01313563088723984 0  0.26 0.01313563088723984 0  0.28 0.01313563088723984 0  0.3 0.01313563088723984 0  0.32 0.01313563088723984 0  0.34 0.01313563088723984 0  0.36 0.01313563088723984 0  0.38 0.01313563088723984 0  0.4 0.01313563088723984 0  0.42 0.01313563088723984 0  0.44 0.01313563088723984 0  0.46 0.01313563088723984 0  0.48 0.01313563088723984 0  0.5 0.01313563088723984 0  0.52 0.01313563088723984 0  0.54 0.01313563088723984 0  0.5600000000000001 0.01313563088723984 0  0.58 0.01313563088723984 0  0.6 0.01313563088723984 0  0.62 0.01313563088723984 0  0.64 0.01313563088723984 0  0.66 0.01313563088723984 0  0.68 0.01313563088723984 0  0.7 0.01313563088723984 0  0.72 0.01313563088723984 0  0.74 0.01313563088723984 0  0.76 0.01313563088723984 0  0.78 0.01313563088723984 0  0.8 0.01313563088723984 0  0.82 0.01313563088723984 0  0.84 0.01313563088723984 0  0.86 0.01313563088723984 0  0.88 0.01313563088723984 0  0.9 0.01313563088723984 0  0.92 0.01313563088723984 0  0.9399999999999999 0.01313563088723984 0  0.96 0.01313563088723984 0  0.98 0.01313563088723984 0  1 0.01313563088723984 0  0 0.02664639863733726 0  0.02 0.02664639863733726 0  0.04 0.02664639863733726 0  0.06 0.02664639863733726 0  0.08 0.02664639863733726 0  0.1 0.02664639863733726 0  0.12 0.02664639863733726 0  0.14 0.02664639863733726 0  0.16 0.02664639863733726 0  0.18 0.02664639863733726 0  0.2 0.02664639863733726 0  0.22 0.02664639863733726 0  0.24 0.02664639863733726 0  0.26 0.02664639863733726 0  0.28 0.02664639863733726 0  0.3 0.02664639863733726 0  0.32 0.02664639863733726 0  0.34 0.02664639863733726 0  0.36 0.02664639863733726 0  0.38 0.02664639863733726 0  0.4 0.02664639863733726 0  0.42 0.02664639863733726 0  0.44 0.02664639863733726 0  0.46 0.02664639863733726 0  0.48 0.02664639863733726 0  0.5 0.02664639863733726 0  0.52 0.02664639863733726 0  0.54 0.02664639863733726 0  0.5600000000000001 0.02664639863733726 0  0.58 0.02664639863733726 0  0.6 0.02664639863733726 0  0.62 0.02664639863733726 0  0.64 0.02664639863733726 0  0.66 0.02664639863733726 0  0.68 0.02664639863733726 0  0.7 0.02664639863733726 0  0.72 0.02664639863733726 0  0.74 0.02664639863733726 0  0.76 0.02664639863733726 0  0.78 0.02664639863733726 0  0.8 0.02664639863733726 0  0.82 0.02664639863733726 0  0.84 0.02664639863733726 0  0.86 0.02664639863733726 0  0.88 0.02664639863733726 0  0.9 0.02664639863733726 0  0.92 0.02664639863733726 0  0.9399999999999999 0.02664639863733726 0  0.96 0.02664639863733726 0  0.98 0.02664639863733726 0  1 0.02664639863733726 0  0 0.04101652939099896 0  0.02 0.04101652939099896 0  0.04 0.04101652939099896 0  0.06 0.04101652939099896 0  0.08 0.04101652939099896 0  0.1 0.04101652939099896 0  0.12 0.04101652939099896 0  0.14 0.04101652939099896 0  0.16 0.04101652939099896 0  0.18 0.04101652939099896 0  0.2 0.04101652939099896 0  0.22 0.04101652939099896 0  0.24 0.04101652939099896 0  0.26 0.04101652939099896 0  0.28 0.04101652939099896 0  0.3 0.04101652939099896 0  0.32 0.04101652939099896 0  0.34 0.04101652939099896 0  0.36 0.04101652939099896 0  0.38 0.04101652939099896 0  0.4 0.04101652939099896 0  0.42 0.04101652939099896 0  0.44 0.04101652939099896 0  0.46 0.04101652939099896 0  0.48 0.04101652939099896 0  0.5 0.04101652939099896 0  0.52 0.04101652939099896 0  0.54 0.04101652939099896 0  0.5600000000000001 0.04101652939099896 0  0.58 0.04101652939099896 0  0.6 0.04101652939099896 0  0.62 0.04101652939099896 0  0.64 0.04101652939099896 0  0.66 0.04101652939099896 0  0.68 0.04101652939099896 0  0.7 0.04101652939099896 0  0.72 0.04101652939099896 0  0.74 0.04101652939099896 0  0.76 0.04101652939099896 0  0.78 0.04101652939099896 0  0.8 0.04101652939099896 0  0.82 0.04101652939099896 0  0.84 0.04101652939099896 0  0.86 0.04101652939099896 0  0.88 0.04101652939099896 0  0.9 0.04101652939099896 0  0.92 0.04101652939099896 0  0.9399999999999999 0.04101652939099896 0  0.96 0.04101652939099896 0  0.98 0.04101652939099896 0  1 0.04101652939099896 0  0 0.05705811164099547 0  0.02 0.05705811164099547 0  0.04 0.05705811164099547 0  0.06 0.05705811164099547 0  0.08 0.05705811164099547 0  0.1 0.05705811164099547 0  0.12 0.05705811164099547 0  0.14 0.05705811164099547 0  0.16 0.05705811164099547 0  0.18 0.05705811164099547 0  0.2 0.05705811164099547 0  0.22 0.05705811164099547 0  0.24 0.05705811164099547 0  0.26 0.05705811164099547 0  0.28 0.05705811164099547 0  0.3 0.05705811164099547 0  0.32 0.05705811164099547 0  0.34 0.05705811164099547 0  0.36 0.05705811164099547 0  0.38 0.05705811164099547 0  0.4 0.05705811164099547 0  0.42 0.05705811164099547 0  0.44 0.05705811164099547 0  0.46 0.05705811164099547 0  0.48 0.05705811164099547 0  0.5 0.05705811164099547 0  0.52 0.05705811164099547 0  0.54 0.05705811164099547 0  0.5600000000000001 0.05705811164099547 0  0.58 0.05705811164099547 0  0.6 0.05705811164099547 0  0.62 0.05705811164099547 0  0.64 0.05705811164099547 0  0.66 0.05705811164099547 0  0.68 0.05705811164099547 0  0.7 0.05705811164099547 0  0.72 0.05705811164099547 0  0.74 0.05705811164099547 0  0.76 0.05705811164099547 0  0.78 0.05705811164099547 0  0.8 0.05705811164099547 0  0.82 0.05705811164099547 0  0.84 0.05705811164099547 0  0.86 0.05705811164099547 0  0.88 0.05705811164099547 0  0.9 0.05705811164099547 0  0.92 0.05705811164099547 0  0.9399999999999999 0.05705811164099547 0  0.96 0.05705811164099547 0  0.98 0.05705811164099547 0  1 0.05705811164099547 0  0 0.07667714377545 0  0.02 0.07667714377545 0  0.04 0.07667714377545 0  0.06 0.07667714377545 0  0.08 0.07667714377545 0  0.1 0.07667714377545 0  0.12 0.07667714377545 0  0.14 0.07667714377545 0  0.16 0.07667714377545 0  0.18 0.07667714377545 0  0.2 0.07667714377545 0  0.22 0.07667714377545 0  0.24 0.07667714377545 0  0.26 0.07667714377545 0  0.28 0.07667714377545 0  0.3 0.07667714377545 0  0.32 0.07667714377545 0  0.34 0.07667714377545 0  0.36 0.07667714377545 0  0.38 0.07667714377545 0  0.4 0.07667714377545 0  0.42 0.07667714377545 0  0.44 0.07667714377545 0  0.46 0.07667714377545 0  0.48 0.07667714377545 0  0.5 0.07667714377545 0  0.52 0.07667714377545 0  0.54 0.07667714377545 0  0.5600000000000001 0.07667714377545 0  0.58 0.07667714377545 0  0.6 0.07667714377545 0  0.62 0.07667714377545 0  0.64 0.07667714377545 0  0.66 0.07667714377545 0  0.68 0.07667714377545 0  0.7 0.07667714377545 0  0.72 0.07667714377545 0  0.74 0.07667714377545 0  0.76 0.07667714377545 0  0.78 0.07667714377545 0  0.8 0.07667714377545 0  0.82 0.07667714377545 0  0.84 0.07667714377545 0  0.86 0.07667714377545 0  0.88 0.07667714377545 0  0.9 0.07667714377545 0  0.92 0.07667714377545 0  0.9399999999999999 0.07667714377545 0  0.96 0.07667714377545 0  0.98 0.07667714377545 0  1 0.07667714377545 0  0 0.1098730133816912 0  0.02 0.1098730133816912 0  0.04 0.1098730133816912 0  0.06 0.1098730133816912 0  0.08 0.1098730133816912 0  0.1 0.1098730133816912 0  0.12 0.1098730133816912 0  0.14 0.1098730133816912 0  0.16 0.1098730133816912 0  0.18 0.1098730133816912 0  0.2 0.1098730133816912 0  0.22 0.1098730133816912 0  0.24 0.1098730133816912 0  0.26 0.1098730133816912 0  0.28 0.1098730133816912 0  0.3 0.1098730133816912 0  0.32 0.1098730133816912 0  0.34 0.1098730133816912 0  0.36 0.1098730133816912 0  0.38 0.1098730133816912 0  0.4 0.1098730133816912 0  0.42 0.1098730133816912 0  0.44 0.1098730133816912 0  0.46 0.1098730133816912 0  0.48 0.1098730133816912 0  0.5 0.1098730133816912 0  0.52 0.1098730133816912 0  0.54 0.1098730133816912 0  0.5600000000000001 0.1098730133816912 0  0.58 0.1098730133816912 0  0.6 0.1098730133816912 0  0.62 0.1098730133816912 0  0.64 0.1098730133816912 0  0.66 0.1098730133816912 0  0.68 0.1098730133816912 0  0.7 0.1098730133816912 0  0.72 0.1098730133816912 0  0.74 0.1098730133816912 0  0.76 0.1098730133816912 0  0.78 0.1098730133816912 0  0.8 0.1098730133816912 0  0.82 0.1098730133816912 0  0.84 0.1098730133816912 0  0.86 0.1098730133816912 0  0.88 0.1098730133816912 0  0.9 0.1098730133816912 0  0.92 0.1098730133816912 0  0.9399999999999999 0.1098730133816912 0  0.96 0.1098730133816912 0  0.98 0.1098730133816912 0  1 0.1098730133816912 0  0 0.1603283563168221 0  0.02 0.1603283563168221 0  0.04 0.1603283563168221 0  0.06 0.1603283563168221 0  0.08 0.1603283563168221 0  0.1 0.1603283563168221 0  0.12 0.1603283563168221 0  0.14 0.1603283563168221 0  0.16 0.1603283563168221 0  0.18 0.1603283563168221 0  0.2 0.1603283563168221 0  0.22 0.1603283563168221 0  0.24 0.1603283563168221 0  0.26 0.1603283563168221 0  0.28 0.1603283563168221 0  0.3 0.1603283563168221 0  0.32 0.1603283563168221 0  0.34 0.1603283563168221 0  0.36 0.1603283563168221 0  0.38 0.1603283563168221 0  0.4 0.1603283563168221 0  0.42 0.1603283563168221 0  0.44 0.1603283563168221 0  0.46 0.1603283563168221 0  0.48 0.1603283563168221 0  0.5 0.1603283563168221 0  0.52 0.1603283563168221 0  0.54 0.1603283563168221 0  0.5600000000000001 0.1603283563168221 0  0.58 0.1603283563168221 0 
[...]
<PointData  Vectors="u_paraw"> 
<DataArray  type="Float64"  Name="u_paraw"  NumberOfComponents="3" format="ascii">7.7608438400968868e-05 8.6215654904848397e-05 0.0000000000000000e+00  7.7608438389974665e-05 8.6215654903308830e-05 0.0000000000000000e+00  7.7608438393986050e-05 8.6215654903460618e-05 0.0000000000000000e+00  7.7608438403296474e-05 8.6215654909738135e-05 0.0000000000000000e+00  7.7608438396396204e-05 8.6215654904284598e-05 0.0000000000000000e+00  7.7608438393804473e-05 8.6215654900576667e-05 0.0000000000000000e+00  7.7608438394431766e-05 8.6215654906528829e-05 0.0000000000000000e+00  7.7608438394728905e-05 8.6215654902560757e-05 0.0000000000000000e+00  7.7608438397023483e-05 8.6215654899871936e-05 0.0000000000000000e+00  7.7608438393226688e-05 8.6215654903417169e-05 0.0000000000000000e+00  7.7608438391889555e-05 8.6215654898494999e-05 0.0000000000000000e+00  7.7608438402735196e-05 8.6215654913012466e-05 0.0000000000000000e+00  7.7608438394613342e-05 8.6215654903785797e-05 0.0000000000000000e+00  7.7608438392880028e-05 8.6215654904598949e-05 0.0000000000000000e+00  7.7608438393606376e-05 8.6215654905282240e-05 0.0000000000000000e+00  7.7608438396973962e-05 8.6215654911960682e-05 0.0000000000000000e+00  7.7608438396016517e-05 8.6215654895350704e-05 0.0000000000000000e+00  7.7608438403114870e-05 8.6215654910724935e-05 0.0000000000000000e+00  7.7608438393111140e-05 8.6215654905932518e-05 0.0000000000000000e+00  7.7608438393771446e-05 8.6215654898896046e-05 0.0000000000000000e+00  7.7608438401843765e-05 8.6215654912817445e-05 0.0000000000000000e+00  7.7608438396049531e-05 8.6215654891349998e-05 0.0000000000000000e+00  7.7608438403841217e-05 8.6215654914833817e-05 0.0000000000000000e+00  7.7608438397337143e-05 8.6215654904534141e-05 0.0000000000000000e+00  7.7608438388389900e-05 8.6215654892065572e-05 0.0000000000000000e+00  7.7608438395719378e-05 8.6215654892379991e-05 0.0000000000000000e+00  7.7608438397848873e-05 8.6215654900587401e-05 0.0000000000000000e+00  7.7608438395620322e-05 8.6215654903818323e-05 0.0000000000000000e+00  7.7608438393672404e-05 8.6215654899373569e-05 0.0000000000000000e+00  7.7608438397947928e-05 8.6215654900912662e-05 0.0000000000000000e+00  7.7608438400341562e-05 8.6215654898776783e-05 0.0000000000000000e+00  7.7608438397568240e-05 8.6215654909521227e-05 0.0000000000000000e+00  7.7608438393688911e-05 8.6215654897508267e-05 0.0000000000000000e+00  7.7608438399846325e-05 8.6215654903764113e-05 0.0000000000000000e+00  7.7608438393144153e-05 8.6215654899557883e-05 0.0000000000000000e+00  7.7608438393903515e-05 8.6215654902441387e-05 0.0000000000000000e+00  7.7608438399549186e-05 8.6215654901660761e-05 0.0000000000000000e+00  7.7608438390486394e-05 8.6215654904642317e-05 0.0000000000000000e+00  7.7608438397848873e-05 8.6215654903048540e-05 0.0000000000000000e+00  7.7608438398013956e-05 8.6215654903081066e-05 0.0000000000000000e+00  7.7608438392549875e-05 8.6215654899568725e-05 0.0000000000000000e+00  7.7608438402982800e-05 8.6215654906550513e-05 0.0000000000000000e+00  7.7608438393705418e-05 8.6215654895632597e-05 0.0000000000000000e+00  7.7608438398872359e-05 8.6215654906919142e-05 0.0000000000000000e+00  7.7608438393787953e-05 8.6215654896467433e-05 0.0000000000000000e+00  7.7608438396693330e-05 8.6215654898787625e-05 0.0000000000000000e+00  7.7608438399119978e-05 8.6215654908871180e-05 0.0000000000000000e+00  7.7608438397039990e-05 8.6215654910269326e-05 0.0000000000000000e+00  7.7608438400325055e-05 8.6215654904642317e-05 0.0000000000000000e+00  7.7608438393177167e-05 8.6215654900966872e-05 0.0000000000000000e+00  7.7608438400968854e-05 -6.1550871122362086e-15 0.0000000000000000e+00  -3.9298866891242569e-06 3.5062248478993218e-05 0.0000000000000000e+00  -3.9298866906971031e-06 3.5062248491656699e-05 0.0000000000000000e+00  -3.9298866898946309e-06 3.5062248499029287e-05 0.0000000000000000e+00  -3.9298866906650056e-06 3.5062248484349176e-05 0.0000000000000000e+00  -3.9298866810995312e-06 3.5062248498422120e-05 0.0000000000000000e+00  -3.9298866972452810e-06 3.5062248488078859e-05 0.0000000000000000e+00  -3.9298866930724232e-06 3.5062248483026422e-05 0.0000000000000000e+00  -3.9298866901514224e-06 3.5062248490962837e-05 0.0000000000000000e+00  -3.9298866897020384e-06 3.5062248492740928e-05 0.0000000000000000e+00  -3.9298866883859830e-06 3.5062248487796912e-05 0.0000000000000000e+00  -3.9298866918847636e-06 3.5062248497229525e-05 0.0000000000000000e+00  -3.9298866871020268e-06 3.5062248483763734e-05 0.0000000000000000e+00  -3.9298866925267417e-06 3.5062248480576126e-05 0.0000000000000000e+00  -3.9298866900551258e-06 3.5062248490138789e-05 0.0000000000000000e+00  -3.9298866954798416e-06 3.5062248483742091e-05 0.0000000000000000e+00  -3.9298866959292256e-06 3.5062248485563456e-05 0.0000000000000000e+00  -3.9298866953514458e-06 3.5062248480576126e-05 0.0000000000000000e+00  -3.9298866873588175e-06 3.5062248484956397e-05 0.0000000000000000e+00  -3.9298866874872133e-06 3.5062248493825076e-05 0.0000000000000000e+00  -3.9298866907934006e-06 3.5062248489921948e-05 0.0000000000000000e+00  -3.9298866859785646e-06 3.5062248489423310e-05 0.0000000000000000e+00  -3.9298866907934006e-06 3.5062248490615838e-05 0.0000000000000000e+00  -3.9298866852723890e-06 3.5062248488902798e-05 0.0000000000000000e+00  -3.9298866940353904e-06 3.5062248477713927e-05 0.0000000000000000e+00  -3.9298866909538955e-06 3.5062248493521500e-05 0.0000000000000000e+00  -3.9298866864921478e-06 3.5062248486539238e-05 0.0000000000000000e+00  -3.9298866886106754e-06 3.5062248485043039e-05 0.0000000000000000e+00  -3.9298866907292031e-06 3.5062248485585140e-05 0.0000000000000000e+00  -3.9298866955761382e-06 3.5062248478191077e-05 0.0000000000000000e+00  -3.9298866884501805e-06 3.5062248484587674e-05 0.0000000000000000e+00  -3.9298866901835216e-06 3.5062248486517553e-05 0.0000000000000000e+00  -3.9298866927514341e-06 3.5062248476803102e-05 0.0000000000000000e+00  -3.9298866901835216e-06 3.5062248487688492e-05 0.0000000000000000e+00  -3.9298866945168744e-06 3.5062248476239317e-05 0.0000000000000000e+00  -3.9298866890279611e-06 3.5062248481443684e-05 0.0000000000000000e+00  -3.9298866895736426e-06 3.5062248494974330e-05 0.0000000000000000e+00  -3.9298866924304451e-06 3.5062248478234249e-05 0.0000000000000000e+00  -3.9298866922057526e-06 3.5062248486018820e-05 0.0000000000000000e+00  -3.9298866921736535e-06 3.5062248483937152e-05 0.0000000000000000e+00  -3.9298866893489502e-06 3.5062248479860552e-05 0.0000000000000000e+00  -3.9298866910501922e-06 3.5062248482506202e-05 0.0000000000000000e+00  -3.9298866861390596e-06 3.5062248486105557e-05 0.0000000000000000e+00  -3.9298866932650165e-06 3.5062248482527689e-05 0.0000000000000000e+00  -3.9298866847267075e-06 3.5062248493087819e-05 0.0000000000000000e+00  -3.9298866941958853e-06 3.5062248488425749e-05 0.0000000000000000e+00  -3.9298866856575755e-06 3.5062248490377313e-05 0.0000000000000000e+00  -3.9298866907292031e-06 3.5062248478559706e-05 0.0000000000000000e+00  -3.9298866903761149e-06 3.5062248490160473e-05 0.0000000000000000e+00  -3.9298866880328948e-06 3.5062248482224113e-05 0.0000000000000000e+00  -3.9298866966995995e-06 3.5062248488100489e-05 0.0000000000000000e+00  -3.9298866891242578e-06 -1.2955748123928676e-04 0.0000000000000000e+00  -1.2377534375885931e-04 -4.2365952626077785e-04 0.0000000000000000e+00  -1.2377534376054934e-04 -4.2365952626355341e-04 0.0000000000000000e+00  -1.2377534376453302e-04 -4.2365952626563513e-04 0.0000000000000000e+00  -1.2377534376652484e-04 -4.2365952626251247e-04 0.0000000000000000e+00  -1.2377534376097185e-04 -4.2365952625648430e-04 0.0000000000000000e+00  -1.2377534377141391e-04 -4.2365952627495949e-04 0.0000000000000000e+00  -1.2377534376073043e-04 -4.2365952625045592e-04 0.0000000000000000e+00  -1.2377534376290333e-04 -4.2365952626667618e-04 0.0000000000000000e+00  -1.2377534376881847e-04 -4.2365952626689302e-04 0.0000000000000000e+00  -1.2377534375982504e-04 -4.2365952626324951e-04 0.0000000000000000e+00  -1.2377534376350690e-04 -4.2365952626090823e-04 0.0000000000000000e+00  -1.2377534377050852e-04 -4.2365952626654608e-04 0.0000000000000000e+00  -1.2377534376622305e-04 -4.2365952625947648e-04 0.0000000000000000e+00  -1.2377534375511705e-04 -4.2365952626008364e-04 0.0000000000000000e+00  -1.2377534375964397e-04 -4.2365952625830663e-04 0.0000000000000000e+00  -1.2377534376604199e-04 -4.2365952626602507e-04 0.0000000000000000e+00  -1.2377534376555911e-04 -4.2365952626238215e-04 0.0000000000000000e+00  -1.2377534375795392e-04 -4.2365952625830663e-04 0.0000000000000000e+00  -1.2377534376676629e-04 -4.2365952626841031e-04 0.0000000000000000e+00  -1.2377534376905992e-04 -4.2365952627248691e-04 0.0000000000000000e+00  -1.2377534376441229e-04 -4.2365952626342406e-04 0.0000000000000000e+00  -1.2377534375994576e-04 -4.2365952625969332e-04 0.0000000000000000e+00  -1.2377534375831607e-04 -4.2365952625513968e-04 0.0000000000000000e+00  -1.2377534376356727e-04 -4.2365952626108219e-04 0.0000000000000000e+00  -1.2377534376453302e-04 -4.2365952626541791e-04 0.0000000000000000e+00  -1.2377534375777286e-04 -4.2365952626151478e-04 0.0000000000000000e+00  -1.2377534376054934e-04 -4.2365952625895607e-04 0.0000000000000000e+00  -1.2377534376423123e-04 -4.2365952626151478e-04 0.0000000000000000e+00  -1.2377534376942207e-04 -4.2365952626763202e-04 0.0000000000000000e+00  -1.2377534375728998e-04 -4.2365952626051732e-04 0.0000000000000000e+00  -1.2377534376417087e-04 -4.2365952626546128e-04 0.0000000000000000e+00  -1.2377534376966349e-04 -4.2365952626884399e-04 0.0000000000000000e+00  -1.2377534375445311e-04 -4.2365952625735145e-04 0.0000000000000000e+00  -1.2377534377153461e-04 -4.2365952626975472e-04 0.0000000000000000e+00  -1.2377534376350690e-04 -4.2365952625757062e-04 0.0000000000000000e+00  -1.2377534376380872e-04 -4.2365952625960659e-04 0.0000000000000000e+00  -1.2377534376549875e-04 -4.2365952626502760e-04 0.0000000000000000e+00  -1.2377534375747104e-04 -4.2365952626485413e-04 0.0000000000000000e+00  -1.2377534375867822e-04 -4.2365952625739482e-04 0.0000000000000000e+00  -1.2377534375789356e-04 -4.2365952625531315e-04 0.0000000000000000e+00  -1.2377534376471408e-04 -4.2365952626351205e-04 0.0000000000000000e+00  -1.2377534376278260e-04 -4.2365952627092566e-04 0.0000000000000000e+00  -1.2377534375795392e-04 -4.2365952625834891e-04 0.0000000000000000e+00  -1.2377534375976467e-04 -4.2365952625886933e-04 0.0000000000000000e+00  -1.2377534376386906e-04 -4.2365952626684906e-04 0.0000000000000000e+00  -1.2377534376278260e-04 -4.2365952625379527e-04 0.0000000000000000e+00  -1.2377534376960313e-04 -4.2365952626108343e-04 0.0000000000000000e+00  -1.2377534375885931e-04 -4.2365952626333624e-04 0.0000000000000000e+00  -1.2377534376314475e-04 -4.2365952627170628e-04 0.0000000000000000e+00  -1.2377534376217903e-04 -4.2365952626398677e-04 0.0000000000000000e+00  -1.2377534375885931e-04 2.3147868814265893e-04 0.0000000000000000e+00  3.4712037130274617e-04 6.4270299206378376e-04 0.0000000000000000e+00  3.4712037131064035e-04 6.4270299207887585e-04 0.0000000000000000e+00  3.4712037130782875e-04 6.4270299205962053e-04 0.0000000000000000e+00  3.4712037132026476e-04 6.4270299208087067e-04 0.0000000000000000e+00  3.4712037131334381e-04 6.4270299206508469e-04 0.0000000000000000e+00  3.4712037131193798e-04 6.4270299207002919e-04 0.0000000000000000e+00  3.4712037129820434e-04 6.4270299206057398e-04 0.0000000000000000e+00  3.4712037130696355e-04 6.4270299207089656e-04 0.0000000000000000e+00  3.4712037131182983e-04 6.4270299206794753e-04 0.0000000000000000e+00  3.4712037131529033e-04 6.4270299207462524e-04 0.0000000000000000e+00  3.4712037130804499e-04 6.4270299206395766e-04 0.0000000000000000e+00  3.4712037130707170e-04 6.4270299206100863e-04 0.0000000000000000e+00  3.4712037130069155e-04 6.4270299205988009e-04 0.0000000000000000e+00  3.4712037130523338e-04 6.4270299206751287e-04 0.0000000000000000e+00  3.4712037130966707e-04 6.4270299206343790e-04 0.0000000000000000e+00  3.4712037130609852e-04 6.4270299206898739e-04 0.0000000000000000e+00  3.4712037130285432e-04 6.4270299205849231e-04 0.0000000000000000e+00  3.4712037130966707e-04 6.4270299207002985e-04 0.0000000000000000e+00  3.4712037131399265e-04 6.4270299207575281e-04 0.0000000000000000e+00  3.4712037130361131e-04 6.4270299206881391e-04 0.0000000000000000e+00  3.4712037131031591e-04 6.4270299206352463e-04 0.0000000000000000e+00  3.4712037130750430e-04 6.4270299207271704e-04 0.0000000000000000e+00  3.4712037130577407e-04 6.4270299206638530e-04 0.0000000000000000e+00  3.4712037130945077e-04 6.4270299206404505e-04 0.0000000000000000e+00  3.4712037131020781e-04 6.4270299206950780e-04 0.0000000000000000e+00  3.4712037131031591e-04 6.4270299206985475e-04 0.0000000000000000e+00  3.4712037130761245e-04 6.4270299207158947e-04 0.0000000000000000e+00  3.4712037130480084e-04 6.4270299206274238e-04 0.0000000000000000e+00  3.4712037131107290e-04 6.4270299206864402e-04 0.0000000000000000e+00  3.4712037131009966e-04 6.4270299206577815e-04 0.0000000000000000e+00  3.4712037130869383e-04 6.4270299207818142e-04 0.0000000000000000e+00  3.4712037130361131e-04 6.4270299207427829e-04 0.0000000000000000e+00  3.4712037131420895e-04 6.4270299207158947e-04 0.0000000000000000e+00  3.4712037130480084e-04 6.4270299206404342e-04 0.0000000000000000e+00  3.4712037131291127e-04 6.4270299206118471e-04 0.0000000000000000e+00  3.4712037130436830e-04 6.4270299207809468e-04 0.0000000000000000e+00  3.4712037130079970e-04 6.4270299206456384e-04 0.0000000000000000e+00  3.4712037130685546e-04 6.4270299206386995e-04 0.0000000000000000e+00  3.4712037131139734e-04 6.4270299206812002e-04 0.0000000000000000e+00  3.4712037130847759e-04 6.4270299206135460e-04 0.0000000000000000e+00  3.4712037130685546e-04 6.4270299206343985e-04 0.0000000000000000e+00  3.4712037130436830e-04 6.4270299205823210e-04 0.0000000000000000e+00  3.4712037131193803e-04 6.4270299206465058e-04 0.0000000000000000e+00  3.4712037131193803e-04 6.4270299206256891e-04 0.0000000000000000e+00  3.4712037131431710e-04 6.4270299206898739e-04 0.0000000000000000e+00  3.4712037130782875e-04 6.4270299207488544e-04 0.0000000000000000e+00  3.4712037131042405e-04 6.4270299207081242e-04 0.0000000000000000e+00  3.4712037131139734e-04 6.4270299208165087e-04 0.0000000000000000e+00  3.4712037130696361e-04 6.4270299206751287e-04 0.0000000000000000e+00  3.4712037131831824e-04 6.4270299208061003e-04 0.0000000000000000e+00  3.4712037130274617e-04 -5.2415929404375479e-04 0.0000000000000000e+00  -6.7401129492309763e-04 -2.2429697225884687e-03 0.0000000000000000e+00  -6.7401129491575877e-04 -2.2429697225879483e-03 0.0000000000000000e+00  -6.7401129492495454e-04 -2.2429697225894237e-03 0.0000000000000000e+00  -6.7401129492734185e-04 -2.2429697226000042e-03 0.0000000000000000e+00  -6.7401129491903025e-04 -2.2429697225867335e-03 0.0000000000000000e+00  -6.7401129492725338e-04 -2.2429697225869955e-03 0.0000000000000000e+00  -6.7401129493865962e-04 -2.2429697225954063e-03 0.0000000000000000e+00  -6.7401129492115235e-04 -2.2429697225827454e-03 0.0000000000000000e+00  -6.7401129493415020e-04 -2.2429697226015672e-03 0.0000000000000000e+00  -6.7401129492619238e-04 -2.2429697225904623e-03 0.0000000000000000e+00  -6.7401129493574170e-04 -2.2429697226043427e-03 0.0000000000000000e+00  -6.7401129493025965e-04 -2.2429697225994855e-03 0.0000000000000000e+00  -6.7401129493282390e-04 -2.2429697225986155e-03 0.0000000000000000e+00  -6.7401129492681124e-04 -2.2429697225934114e-03 0.0000000000000000e+00  -6.7401129492734185e-04 -2.2429697225965395e-03 0.0000000000000000e+00  -6.7401129492203663e-04 -2.2429697225808346e-03 0.0000000000000000e+00  -6.7401129493220493e-04 -2.2429697225940185e-03 0.0000000000000000e+00  -6.7401129492292080e-04 -2.2429697225817944e-03 0.0000000000000000e+00  -6.7401129492796071e-04 -2.2429697225913297e-03 0.0000000000000000e+00  -6.7401129492840285e-04 -2.2429697225935848e-03 0.0000000000000000e+00  -6.7401129492716501e-04 -2.2429697225946313e-03 0.0000000000000000e+00  -6.7401129493432704e-04 -2.2429697225998298e-03 0.0000000000000000e+00  -6.7401129493344287e-04 -2.2429697225995696e-03 0.0000000000000000e+00  -6.7401129492530810e-04 -2.2429697225837025e-03 0.0000000000000000e+00  -6.7401129492857968e-04 -2.2429697226001768e-03 0.0000000000000000e+00  -6.7401129492760704e-04 -2.2429697225961869e-03 0.0000000000000000e+00  -6.7401129492539657e-04 -2.2429697225928909e-03 0.0000000000000000e+00  -6.7401129491681977e-04 -2.2429697225833500e-03 0.0000000000000000e+00  -6.7401129492336293e-04 -2.2429697225984542e-03 0.0000000000000000e+00  -6.7401129492283233e-04 -2.2429697225944522e-03 0.0000000000000000e+00  -6.7401129492716501e-04 -2.2429697225987023e-03 0.0000000000000000e+00  -6.7401129493149759e-04 -2.2429697226034728e-03 0.0000000000000000e+00  -6.7401129492398180e-04 -2.2429697225898552e-03 0.0000000000000000e+00  -6.7401129492619238e-04 -2.2429697225949726e-03 0.0000000000000000e+00  -6.7401129491593561e-04 -2.2429697225801529e-03 0.0000000000000000e+00  -6.7401129492734185e-04 -2.2429697225921971e-03 0.0000000000000000e+00  -6.7401129492601554e-04 -2.2429697225895950e-03 0.0000000000000000e+00  -6.7401129493132076e-04 -2.2429697226078096e-03 0.0000000000000000e+00  -6.7401129492212499e-04 -2.2429697225884674e-03 0.0000000000000000e+00  -6.7401129493087862e-04 -2.2429697225971410e-03 0.0000000000000000e+00  -6.7401129491788077e-04 -2.2429697225881326e-03 0.0000000000000000e+00  -6.7401129492539657e-04 -2.2429697225909827e-03 0.0000000000000000e+00  -6.7401129491832291e-04 -2.2429697225822224e-03 0.0000000000000000e+00  -6.7401129492725338e-04 -2.2429697226008707e-03 0.0000000000000000e+00  -6.7401129491063039e-04 -2.2429697225819622e-03 0.0000000000000000e+00  -6.7401129492309763e-04 -2.2429697225972278e-03 0.0000000000000000e+00  -6.7401129492796071e-04 -2.2429697225887398e-03 0.0000000000000000e+00  -6.7401129492804918e-04 -2.2429697225937583e-03 0.0000000000000000e+00  -6.7401129492035655e-04 -2.2429697225926307e-03 0.0000000000000000e+00  -6.7401129492168285e-04 -2.2429697225894215e-03 0.0000000000000000e+00  -6.7401129492309763e-04 1.4387530010416655e-04 0.0000000000000000e+00  5.7340861886389196e-04 1.6933531333560708e-03 0.0000000000000000e+00  5.7340861886462358e-04 1.6933531333617954e-03 0.0000000000000000e+00  5.7340861886754995e-04 1.6933531333791429e-03 0.0000000000000000e+00  5.7340861885093217e-04 1.6933531333505195e-03 0.0000000000000000e+00  5.7340861885270896e-04 1.6933531333611013e-03 0.0000000000000000e+00  5.7340861885124572e-04 1.6933531333477450e-03 0.0000000000000000e+00  5.7340861885845718e-04 1.6933531333524262e-03 0.0000000000000000e+00  5.7340861886065204e-04 1.6933531333428878e-03 0.0000000000000000e+00  5.7340861886493713e-04 1.6933531333621432e-03 0.0000000000000000e+00  5.7340861886619123e-04 1.6933531333647427e-03 0.0000000000000000e+00  5.7340861887078987e-04 1.6933531333827865e-03 0.0000000000000000e+00  5.7340861886180162e-04 1.6933531333395918e-03 0.0000000000000000e+00  5.7340861886828146e-04 1.6933531333638754e-03 0.0000000000000000e+00  5.7340861886368282e-04 1.6933531333545079e-03 0.0000000000000000e+00  5.7340861886180162e-04 1.6933531333572882e-03 0.0000000000000000e+00  5.7340861886316023e-04 1.6933531333525997e-03 0.0000000000000000e+00  5.7340861886138355e-04 1.6933531333643958e-03 0.0000000000000000e+00  5.7340861885103657e-04 1.6933531333454921e-03 0.0000000000000000e+00  5.7340861885866621e-04 1.6933531333520793e-03 0.0000000000000000e+00  5.7340861886148807e-04 1.6933531333687326e-03 0.0000000000000000e+00  5.7340861885249981e-04 1.6933531333548596e-03 0.0000000000000000e+00  5.7340861885783008e-04 1.6933531333545079e-03 0.0000000000000000e+00  5.7340861885688942e-04 1.6933531333630080e-03 0.0000000000000000e+00  5.7340861885364950e-04 1.6933531333579821e-03 0.0000000000000000e+00  5.7340861885688942e-04 1.6933531333449669e-03 0.0000000000000000e+00  5.7340861885647135e-04 1.69335