<?xml version="1.0"?>
<VTKFile type="UnstructuredGrid"  version="0.1"  >
<UnstructuredGrid>
<Piece  NumberOfPoints="2601" NumberOfCells="5000">
<Points>
<DataArray  type="Float64"  NumberOfComponents="3"  format="ascii">0 0 0  0.02 0 0  0.04 0 0  0.06 0 0  0.08 0 0  0.1 0 0  0.12 0 0  0.14 0 0  0.16 0 0  0.18 0 0  0.2 0 0  0.22 0 0  0.24 0 0  0.26 0 0  0.28 0 0  0.3 0 0  0.32 0 0  0.34 0 0  0.36 0 0  0.38 0 0  0.4 0 0  0.42 0 0  0.44 0 0  0.46 0 0  0.48 0 0  0.5 0 0  0.52 0 0  0.54 0 0  0.5600000000000001 0 0  0.58 0 0  0.6 0 0  0.62 0 0  0.64 0 0  0.66 0 0  0.68 0 0  0.7 0 0  0.72 0 0  0.74 0 0  0.76 0 0  0.78 0 0  0.8 0 0  0.82 0 0  0.84 0 0  0.86 0 0  0.88 0 0  0.9 0 0  0.92 0 0  0.9399999999999999 0 0  0.96 0 0  0.98 0 0  1 0 0  0 0.01313563088723984 0  0.02 0.01313563088723984 0  0.04 0.01313563088723984 0  0.06 0.01313563088723984 0  0.08 0.01313563088723984 0  0.1 0.01313563088723984 0  0.12 0.01313563088723984 0  0.14 0.01313563088723984 0  0.16 0.01313563088723984 0  0.18 0.01313563088723984 0  0.2 0.01313563088723984 0  0.22 0.01313563088723984 0  0.24 0.01313563088723984 0  0.26 0.01313563088723984 0  0.28 0.01313563088723984 0  0.3 0.01313563088723984 0  0.32 0.01313563088723984 0  0.34 0.01313563088723984 0  0.36 0.01313563088723984 0  0.38 0.01313563088723984 0  0.4 0.01313563088723984 0  0.42 0.01313563088723984 0  0.44 0.01313563088723984 0  0.46 0.01313563088723984 0  0.48 0.01313563088723984 0  0.5 0.01313563088723984 0  0.52 0.01313563088723984 0  0.54 0.01313563088723984 0  0.5600000000000001 0.01313563088723984 0  0.58 0.01313563088723984 0  0.6 0.01313563088723984 0  0.62 0.01313563088723984 0  0.64 0.01313563088723984 0  0.66 0.01313563088723984 0  0.68 0.01313563088723984 0  0.7 0.01313563088723984 0  0.72 0.01313563088723984 0  0.74 0.01313563088723984 0  0.76 0.01313563088723984 0  0.78 0.01313563088723984 0  0.8 0.01313563088723984 0  0.82 0.01313563088723984 0  0.84 0.01313563088723984 0  0.86 0.01313563088723984 0  0.88 0.01313563088723984 0  0.9 0.01313563088723984 0  0.92 0.01313563088723984 0  0.9399999999999999 0.01313563088723984 0  0.96 0.01313563088723984 0  0.98 0.01313563088723984 0  1 0.01313563088723984 0  0 0.02664639863733726 0  0.02 0.02664639863733726 0  0.04 0.02664639863733726 0  0.06 0.02664639863733726 0  0.08 0.02664639863733726 0  0.1 0.02664639863733726 0  0.12 0.02664639863733726 0  0.14 0.02664639863733726 0  0.16 0.02664639863733726 0  0.18 0.02664639863733726 0  0.2 0.02664639863733726 0  0.22 0.02664639863733726 0  0.24 0.02664639863733726 0  0.26 0.02664639863733726 0  0.28 0.02664639863733726 0  0.3 0.02664639863733726 0  0.32 0.02664639863733726 0  0.34 0.02664639863733726 0  0.36 0.02664639863733726 0  0.38 0.02664639863733726 0  0.4 0.02664639863733726 0  0.42 0.02664639863733726 0  0.44 0.02664639863733726 0  0.46 0.02664639863733726 0  0.48 0.02664639863733726 0  0.5 0.02664639863733726 0  0.52 0.02664639863733726 0  0.54 0.02664639863733726 0  0.5600000000000001 0.02664639863733726 0  0.58 0.02664639863733726 0  0.6 0.02664639863733726 0  0.62 0.02664639863733726 0  0.64 0.02664639863733726 0  0.66 0.02664639863733726 0  0.68 0.02664639863733726 0  0.7 0.02664639863733726 0  0.72 0.02664639863733726 0  0.74 0.02664639863733726 0  0.76 0.02664639863733726 0  0.78 0.02664639863733726 0  0.8 0.02664639863733726 0  0.82 0.02664639863733726 0  0.84 0.02664639863733726 0  0.86 0.02664639863733726 0  0.88 0.02664639863733726 0  0.9 0.02664639863733726 0  0.92 0.02664639863733726 0  0.9399999999999999 0.02664639863733726 0  0.96 0.02664639863733726 0  0.98 0.02664639863733726 0  1 0.02664639863733726 0  0 0.04101652939099896 0  0.02 0.04101652939099896 0  0.04 0.04101652939099896 0  0.06 0.04101652939099896 0  0.08 0.04101652939099896 0  0.1 0.04101652939099896 0  0.12 0.04101652939099896 0  0.14 0.04101652939099896 0  0.16 0.04101652939099896 0  0.18 0.04101652939099896 0  0.2 0.04101652939099896 0  0.22 0.04101652939099896 0  0.24 0.04101652939099896 0  0.26 0.04101652939099896 0  0.28 0.04101652939099896 0  0.3 0.04101652939099896 0  0.32 0.04101652939099896 0  0.34 0.04101652939099896 0  0.36 0.04101652939099896 0  0.38 0.04101652939099896 0  0.4 0.04101652939099896 0  0.42 0.04101652939099896 0  0.44 0.04101652939099896 0  0.46 0.04101652939099896 0  0.48 0.04101652939099896 0  0.5 0.04101652939099896 0  0.52 0.04101652939099896 0  0.54 0.04101652939099896 0  0.5600000000000001 0.04101652939099896 0  0.58 0.04101652939099896 0  0.6 0.04101652939099896 0  0.62 0.04101652939099896 0  0.64 0.04101652939099896 0  0.66 0.04101652939099896 0  0.68 0.04101652939099896 0  0.7 0.04101652939099896 0  0.72 0.04101652939099896 0  0.74 0.04101652939099896 0  0.76 0.04101652939099896 0  0.78 0.04101652939099896 0  0.8 0.04101652939099896 0  0.82 0.04101652939099896 0  0.84 0.04101652939099896 0  0.86 0.04101652939099896 0  0.88 0.04101652939099896 0  0.9 0.04101652939099896 0  0.92 0.04101652939099896 0  0.9399999999999999 0.04101652939099896 0  0.96 0.04101652939099896 0  0.98 0.04101652939099896 0  1 0.04101652939099896 0  0 0.05705811164099547 0  0.02 0.05705811164099547 0  0.04 0.05705811164099547 0  0.06 0.05705811164099547 0  0.08 0.05705811164099547 0  0.1 0.05705811164099547 0  0.12 0.05705811164099547 0  0.14 0.05705811164099547 0  0.16 0.05705811164099547 0  0.18 0.05705811164099547 0  0.2 0.05705811164099547 0  0.22 0.05705811164099547 0  0.24 0.05705811164099547 0  0.26 0.05705811164099547 0  0.28 0.05705811164099547 0  0.3 0.05705811164099547 0  0.32 0.05705811164099547 0  0.34 0.05705811164099547 0  0.36 0.05705811164099547 0  0.38 0.05705811164099547 0  0.4 0.05705811164099547 0  0.42 0.05705811164099547 0  0.44 0.05705811164099547 0  0.46 0.05705811164099547 0  0.48 0.05705811164099547 0  0.5 0.05705811164099547 0  0.52 0.05705811164099547 0  0.54 0.05705811164099547 0  0.5600000000000001 0.05705811164099547 0  0.58 0.05705811164099547 0  0.6 0.05705811164099547 0  0.62 0.05705811164099547 0  0.64 0.05705811164099547 0  0.66 0.05705811164099547 0  0.68 0.05705811164099547 0  0.7 0.05705811164099547 0  0.72 0.05705811164099547 0  0.74 0.05705811164099547 0  0.76 0.05705811164099547 0  0.78 0.05705811164099547 0  0.8 0.05705811164099547 0  0.82 0.05705811164099547 0  0.84 0.05705811164099547 0  0.86 0.05705811164099547 0  0.88 0.05705811164099547 0  0.9 0.05705811164099547 0  0.92 0.05705811164099547 0  0.9399999999999999 0.05705811164099547 0  0.96 0.05705811164099547 0  0.98 0.05705811164099547 0  1 0.05705811164099547 0  0 0.07667714377545 0  0.02 0.07667714377545 0  0.04 0.07667714377545 0  0.06 0.07667714377545 0  0.08 0.07667714377545 0  0.1 0.07667714377545 0  0.12 0.07667714377545 0  0.14 0.07667714377545 0  0.16 0.07667714377545 0  0.18 0.07667714377545 0  0.2 0.07667714377545 0  0.22 0.07667714377545 0  0.24 0.07667714377545 0  0.26 0.07667714377545 0  0.28 0.07667714377545 0  0.3 0.07667714377545 0  0.32 0.07667714377545 0  0.34 0.07667714377545 0  0.36 0.07667714377545 0  0.38 0.07667714377545 0  0.4 0.07667714377545 0  0.42 0.07667714377545 0  0.44 0.07667714377545 0  0.46 0.07667714377545 0  0.48 0.07667714377545 0  0.5 0.07667714377545 0  0.52 0.07667714377545 0  0.54 0.07667714377545 0  0.5600000000000001 0.07667714377545 0  0.58 0.07667714377545 0  0.6 0.07667714377545 0  0.62 0.07667714377545 0  0.64 0.07667714377545 0  0.66 0.07667714377545 0  0.68 0.07667714377545 0  0.7 0.07667714377545 0  0.72 0.07667714377545 0  0.74 0.07667714377545 0  0.76 0.07667714377545 0  0.78 0.07667714377545 0  0.8 0.07667714377545 0  0.82 0.07667714377545 0  0.84 0.07667714377545 0  0.86 0.07667714377545 0  0.88 0.07667714377545 0  0.9 0.07667714377545 0  0.92 0.07667714377545 0  0.9399999999999999 0.07667714377545 0  0.96 0.07667714377545 0  0.98 0.07667714377545 0  1 0.07667714377545 0  0 0.1098730133816912 0  0.02 0.1098730133816912 0  0.04 0.1098730133816912 0  0.06 0.1098730133816912 0  0.08 0.1098730133816912 0  0.1 0.1098730133816912 0  0.12 0.1098730133816912 0  0.14 0.1098730133816912 0  0.16 0.1098730133816912 0  0.18 0.1098730133816912 0  0.2 0.1098730133816912 0  0.22 0.1098730133816912 0  0.24 0.1098730133816912 0  0.26 0.1098730133816912 0  0.28 0.1098730133816912 0  0.3 0.1098730133816912 0  0.32 0.1098730133816912 0  0.34 0.1098730133816912 0  0.36 0.1098730133816912 0  0.38 0.1098730133816912 0  0.4 0.1098730133816912 0  0.42 0.1098730133816912 0  0.44 0.1098730133816912 0  0.46 0.1098730133816912 0  0.48 0.1098730133816912 0  0.5 0.1098730133816912 0  0.52 0.1098730133816912 0  0.54 0.1098730133816912 0  0.5600000000000001 0.1098730133816912 0  0.58 0.1098730133816912 0  0.6 0.1098730133816912 0  0.62 0.1098730133816912 0  0.64 0.1098730133816912 0  0.66 0.1098730133816912 0  0.68 0.1098730133816912 0  0.7 0.1098730133816912 0  0.72 0.1098730133816912 0  0.74 0.1098730133816912 0  0.76 0.1098730133816912 0  0.78 0.1098730133816912 0  0.8 0.1098730133816912 0  0.82 0.1098730133816912 0  0.84 0.1098730133816912 0  0.86 0.1098730133816912 0  0.88 0.1098730133816912 0  0.9 0.1098730133816912 0  0.92 0.1098730133816912 0  0.9399999999999999 0.1098730133816912 0  0.96 0.1098730133816912 0  0.98 0.1098730133816912 0  1 0.1098730133816912 0  0 0.1603283563168221 0  0.02 0.1603283563168221 0  0.04 0.1603283563168221 0  0.06 0.1603283563168221 0  0.08 0.1603283563168221 0  0.1 0.1603283563168221 0  0.12 0.1603283563168221 0  0.14 0.1603283563168221 0  0.16 0.1603283563168221 0  0.18 0.1603283563168221 0  0.2 0.1603283563168221 0  0.22 0.1603283563168221 0  0.24 0.1603283563168221 0  0.26 0.1603283563168221 0  0.28 0.1603283563168221 0  0.3 0.1603283563168221 0  0.32 0.1603283563168221 0  0.34 0.1603283563168221 0  0.36 0.1603283563168221 0  0.38 0.1603283563168221 0  0.4 0.1603283563168221 0  0.42 0.1603283563168221 0  0.44 0.1603283563168221 0  0.46 0.1603283563168221 0  0.48 0.1603283563168221 0  0.5 0.1603283563168221 0  0.52 0.1603283563168221 0  0.54 0.1603283563168221 0  0.5600000000000001 0.1603283563168221 0  0.58 0.1603283563168221 0 
[...]
<PointData  Vectors="u_paraw"> 
<DataArray  type="Float64"  Name="u_paraw"  NumberOfComponents="3" format="ascii">1.0712013638651593e-05 1.6805881119200550e-04 0.0000000000000000e+00  1.0712013641821092e-05 1.6805881118224768e-04 0.0000000000000000e+00  1.0712013637347474e-05 1.6805881118230189e-04 0.0000000000000000e+00  1.0712013631470696e-05 1.6805881118874203e-04 0.0000000000000000e+00  1.0712013641540458e-05 1.6805881119679765e-04 0.0000000000000000e+00  1.0712013642877589e-05 1.6805881118722425e-04 0.0000000000000000e+00  1.0712013635597646e-05 1.6805881117727103e-04 0.0000000000000000e+00  1.0712013643653456e-05 1.6805881118758204e-04 0.0000000000000000e+00  1.0712013634590671e-05 1.6805881118660626e-04 0.0000000000000000e+00  1.0712013635234475e-05 1.6805881118030680e-04 0.0000000000000000e+00  1.0712013641936644e-05 1.6805881118379818e-04 0.0000000000000000e+00  1.0712013648869922e-05 1.6805881118760372e-04 0.0000000000000000e+00  1.0712013638321434e-05 1.6805881118374372e-04 0.0000000000000000e+00  1.0712013635927802e-05 1.6805881118186805e-04 0.0000000000000000e+00  1.0712013638271910e-05 1.6805881118650895e-04 0.0000000000000000e+00  1.0712013642844573e-05 1.6805881119147408e-04 0.0000000000000000e+00  1.0712013643158221e-05 1.6805881118891537e-04 0.0000000000000000e+00  1.0712013643273775e-05 1.6805881118125057e-04 0.0000000000000000e+00  1.0712013640269354e-05 1.6805881119192945e-04 0.0000000000000000e+00  1.0712013635449076e-05 1.6805881119076935e-04 0.0000000000000000e+00  1.0712013646955016e-05 1.6805881117755344e-04 0.0000000000000000e+00  1.0712013640236340e-05 1.6805881118564107e-04 0.0000000000000000e+00  1.0712013646030579e-05 1.6805881118739748e-04 0.0000000000000000e+00  1.0712013647582313e-05 1.6805881119262385e-04 0.0000000000000000e+00  1.0712013635399552e-05 1.6805881118621570e-04 0.0000000000000000e+00  1.0712013636984301e-05 1.6805881118071880e-04 0.0000000000000000e+00  1.0712013639014761e-05 1.6805881118032848e-04 0.0000000000000000e+00  1.0712013640186816e-05 1.6805881119239565e-04 0.0000000000000000e+00  1.0712013623943137e-05 1.6805881118095824e-04 0.0000000000000000e+00  1.0712013642696002e-05 1.6805881118114164e-04 0.0000000000000000e+00  1.0712013643686472e-05 1.6805881119591931e-04 0.0000000000000000e+00  1.0712013639014761e-05 1.6805881119186440e-04 0.0000000000000000e+00  1.0712013645650900e-05 1.6805881118263783e-04 0.0000000000000000e+00  1.0712013635300507e-05 1.6805881119177766e-04 0.0000000000000000e+00  1.0712013643273775e-05 1.6805881118701893e-04 0.0000000000000000e+00  1.0712013633204015e-05 1.6805881118173795e-04 0.0000000000000000e+00  1.0712013634986857e-05 1.6805881117066824e-04 0.0000000000000000e+00  1.0712013651676249e-05 1.6805881118943578e-04 0.0000000000000000e+00  1.0712013633600202e-05 1.6805881118420993e-04 0.0000000000000000e+00  1.0712013637644614e-05 1.6805881117406180e-04 0.0000000000000000e+00  1.0712013633847820e-05 1.6805881118671536e-04 0.0000000000000000e+00  1.0712013648638812e-05 1.6805881119174513e-04 0.0000000000000000e+00  1.0712013640995699e-05 1.6805881119148492e-04 0.0000000000000000e+00  1.0712013630348164e-05 1.6805881117825766e-04 0.0000000000000000e+00  1.0712013649480711e-05 1.6805881119138735e-04 0.0000000000000000e+00  1.0712013636175419e-05 1.6805881119536637e-04 0.0000000000000000e+00  1.0712013636191928e-05 1.6805881117760806e-04 0.0000000000000000e+00  1.0712013650553718e-05 1.6805881119810940e-04 0.0000000000000000e+00  1.0712013642118229e-05 1.6805881119577837e-04 0.0000000000000000e+00  1.0712013635878280e-05 1.6805881118921894e-04 0.0000000000000000e+00  1.0712013638651591e-05 -1.4406546132105025e-14 0.0000000000000000e+00  1.0456275036414870e-05 2.0017923386182829e-04 0.0000000000000000e+00  1.0456275036446969e-05 2.0017923386273902e-04 0.0000000000000000e+00  1.0456275031054352e-05 2.0017923385120317e-04 0.0000000000000000e+00  1.0456275047168006e-05 2.0017923386623016e-04 0.0000000000000000e+00  1.0456275036158080e-05 2.0017923386685899e-04 0.0000000000000000e+00  1.0456275032370409e-05 2.0017923386282590e-04 0.0000000000000000e+00  1.0456275028037057e-05 2.0017923384476282e-04 0.0000000000000000e+00  1.0456275036832157e-05 2.0017923384166227e-04 0.0000000000000000e+00  1.0456275037185245e-05 2.0017923385970339e-04 0.0000000000000000e+00  1.0456275034842024e-05 2.0017923385267749e-04 0.0000000000000000e+00  1.0456275035098816e-05 2.0017923385705794e-04 0.0000000000000000e+00  1.0456275038180312e-05 2.0017923384736517e-04 0.0000000000000000e+00  1.0456275041935883e-05 2.0017923384777690e-04 0.0000000000000000e+00  1.0456275041133411e-05 2.0017923385818524e-04 0.0000000000000000e+00  1.0456275034135850e-05 2.0017923385642935e-04 0.0000000000000000e+00  1.0456275036800058e-05 2.0017923385469411e-04 0.0000000000000000e+00  1.0456275026207420e-05 2.0017923383788898e-04 0.0000000000000000e+00  1.0456275047071708e-05 2.0017923385694976e-04 0.0000000000000000e+00  1.0456275041037113e-05 2.0017923384983688e-04 0.0000000000000000e+00  1.0456275033012388e-05 2.0017923384777690e-04 0.0000000000000000e+00  1.0456275042288970e-05 2.0017923385272138e-04 0.0000000000000000e+00  1.0456275037730927e-05 2.0017923384812384e-04 0.0000000000000000e+00  1.0456275041903784e-05 2.0017923385029225e-04 0.0000000000000000e+00  1.0456275044247004e-05 2.0017923384270335e-04 0.0000000000000000e+00  1.0456275038180312e-05 2.0017923385519284e-04 0.0000000000000000e+00  1.0456275040170443e-05 2.0017923384988025e-04 0.0000000000000000e+00  1.0456275040908718e-05 2.0017923385707935e-04 0.0000000000000000e+00  1.0456275027298783e-05 2.0017923384532660e-04 0.0000000000000000e+00  1.0456275034809925e-05 2.0017923385595287e-04 0.0000000000000000e+00  1.0456275037474135e-05 2.0017923384690954e-04 0.0000000000000000e+00  1.0456275046205038e-05 2.0017923384586870e-04 0.0000000000000000e+00  1.0456275035387707e-05 2.0017923385410864e-04 0.0000000000000000e+00  1.0456275030958057e-05 2.0017923384680112e-04 0.0000000000000000e+00  1.0456275040298839e-05 2.0017923384285462e-04 0.0000000000000000e+00  1.0456275032787695e-05 2.0017923384361465e-04 0.0000000000000000e+00  1.0456275030380277e-05 2.0017923385391348e-04 0.0000000000000000e+00  1.0456275038918586e-05 2.0017923385168003e-04 0.0000000000000000e+00  1.0456275039624762e-05 2.0017923384120663e-04 0.0000000000000000e+00  1.0456275040780323e-05 2.0017923385582168e-04 0.0000000000000000e+00  1.0456275041358103e-05 2.0017923384775522e-04 0.0000000000000000e+00  1.0456275038276608e-05 2.0017923385265689e-04 0.0000000000000000e+00  1.0456275054101368e-05 2.0017923386462540e-04 0.0000000000000000e+00  1.0456275041550697e-05 2.0017923386091743e-04 0.0000000000000000e+00  1.0456275023960495e-05 2.0017923385580000e-04 0.0000000000000000e+00  1.0456275051597654e-05 2.0017923385857555e-04 0.0000000000000000e+00  1.0456275040748224e-05 2.0017923386343278e-04 0.0000000000000000e+00  1.0456275032466705e-05 2.0017923384606494e-04 0.0000000000000000e+00  1.0456275052239632e-05 2.0017923385981154e-04 0.0000000000000000e+00  1.0456275042128476e-05 2.0017923385877071e-04 0.0000000000000000e+00  1.0456275027170386e-05 2.0017923385007541e-04 0.0000000000000000e+00  1.0456275036414871e-05 2.9568597480402283e-04 0.0000000000000000e+00  -4.5784354339245595e-06 -2.8970042922731032e-07 0.0000000000000000e+00  -4.5784354325966693e-06 -2.8970041964296311e-07 0.0000000000000000e+00  -4.5784354325363106e-06 -2.8970041925265033e-07 0.0000000000000000e+00  -4.5784354279490529e-06 -2.8970041747455877e-07 0.0000000000000000e+00  -4.5784354409865222e-06 -2.8970042402313989e-07 0.0000000000000000e+00  -4.5784354496178091e-06 -2.8970043083192953e-07 0.0000000000000000e+00  -4.5784354377271547e-06 -2.8970042480376503e-07 0.0000000000000000e+00  -4.5784354293373018e-06 -2.8970041639035660e-07 0.0000000000000000e+00  -4.5784354339849182e-06 -2.8970042688543363e-07 0.0000000000000000e+00  -4.5784354304237579e-06 -2.8970041227038792e-07 0.0000000000000000e+00  -4.5784354384514585e-06 -2.8970043360748710e-07 0.0000000000000000e+00  -4.5784354376064372e-06 -2.8970043091866571e-07 0.0000000000000000e+00  -4.5784354295183780e-06 -2.8970043443148032e-07 0.0000000000000000e+00  -4.5784354290958669e-06 -2.8970042415324373e-07 0.0000000000000000e+00  -4.5784354271643904e-06 -2.8970043247991726e-07 0.0000000000000000e+00  -4.5784354274661840e-06 -2.8970042627827999e-07 0.0000000000000000e+00  -4.5784354406243699e-06 -2.8970042246188834e-07 0.0000000000000000e+00  -4.5784354321137996e-06 -2.8970041821181667e-07 0.0000000000000000e+00  -4.5784354412279563e-06 -2.8970043638304423e-07 0.0000000000000000e+00  -4.5784354237239467e-06 -2.8970042168126277e-07 0.0000000000000000e+00  -4.5784354302426818e-06 -2.8970041734445493e-07 0.0000000000000000e+00  -4.5784354379082308e-06 -2.8970043291359728e-07 0.0000000000000000e+00  -4.5784354300012469e-06 -2.8970042944415033e-07 0.0000000000000000e+00  -4.5784354322948757e-06 -2.8970043495189821e-07 0.0000000000000000e+00  -4.5784354391757623e-06 -2.8970042948751842e-07 0.0000000000000000e+00  -4.5784354366406986e-06 -2.8970043104876955e-07 0.0000000000000000e+00  -4.5784354277679768e-06 -2.8970042731911407e-07 0.0000000000000000e+00  -4.5784354358560360e-06 -2.8970042970435885e-07 0.0000000000000000e+00  -4.5784354491952989e-06 -2.8970044093669505e-07 0.0000000000000000e+00  -4.5784354496781678e-06 -2.8970044115353379e-07 0.0000000000000000e+00  -4.5784354281904878e-06 -2.8970042450018842e-07 0.0000000000000000e+00  -4.5784354318723655e-06 -2.8970042796963538e-07 0.0000000000000000e+00  -4.5784354360974709e-06 -2.8970042345935434e-07 0.0000000000000000e+00  -4.5784354462980837e-06 -2.8970043382432711e-07 0.0000000000000000e+00  -4.5784354411072388e-06 -2.8970043534221184e-07 0.0000000000000000e+00  -4.5784354372442858e-06 -2.8970041886233713e-07 0.0000000000000000e+00  -4.5784354292769431e-06 -2.8970041795160730e-07 0.0000000000000000e+00  -4.5784354365199820e-06 -2.8970042979109502e-07 0.0000000000000000e+00  -4.5784354224564153e-06 -2.8970042367619477e-07 0.0000000000000000e+00  -4.5784354325363106e-06 -2.8970042749258642e-07 0.0000000000000000e+00  -4.5784354357353194e-06 -2.8970042302567516e-07 0.0000000000000000e+00  -4.5784354299408882e-06 -2.8970043534221015e-07 0.0000000000000000e+00  -4.5784354312084205e-06 -2.8970042940078224e-07 0.0000000000000000e+00  -4.5784354466602352e-06 -2.8970042306904156e-07 0.0000000000000000e+00  -4.5784354275265419e-06 -2.8970042541091825e-07 0.0000000000000000e+00  -4.5784354357353194e-06 -2.8970041201017940e-07 0.0000000000000000e+00  -4.5784354428576400e-06 -2.8970042831658176e-07 0.0000000000000000e+00  -4.5784354361578296e-06 -2.8970042944415033e-07 0.0000000000000000e+00  -4.5784354305444745e-06 -2.8970043217633980e-07 0.0000000000000000e+00  -4.5784354345885046e-06 -2.8970040975503888e-07 0.0000000000000000e+00  -4.5784354339245595e-06 6.3477854895838760e-05 0.0000000000000000e+00  1.1141857151729582e-06 -3.8568574065988431e-05 0.0000000000000000e+00  1.1141857149566800e-06 -3.8568574073361006e-05 0.0000000000000000e+00  1.1141857200392212e-06 -3.8568574064860868e-05 0.0000000000000000e+00  1.1141857227427005e-06 -3.8568574074401833e-05 0.0000000000000000e+00  1.1141857211206129e-06 -3.8568574073968153e-05 0.0000000000000000e+00  1.1141857273926850e-06 -3.8568574064166992e-05 0.0000000000000000e+00  1.1141857191741079e-06 -3.8568574056360682e-05 0.0000000000000000e+00  1.1141857290147725e-06 -3.8568574049768787e-05 0.0000000000000000e+00  1.1141857185252726e-06 -3.8568574073534499e-05 0.0000000000000000e+00  1.1141857201473604e-06 -3.8568574070758887e-05 0.0000000000000000e+00  1.1141857210124737e-06 -3.8568574055927055e-05 0.0000000000000000e+00  1.1141857343135921e-06 -3.8568574063473103e-05 0.0000000000000000e+00  1.1141857146322624e-06 -3.8568574067202704e-05 0.0000000000000000e+00  1.1141857275008242e-06 -3.8568574067289440e-05 0.0000000000000000e+00  1.1141857234996747e-06 -3.8568574069978370e-05 0.0000000000000000e+00  1.1141857264194325e-06 -3.8568574073534445e-05 0.0000000000000000e+00  1.1141857192822469e-06 -3.8568574060437282e-05 0.0000000000000000e+00  1.1141857218775870e-06 -3.8568574062605795e-05 0.0000000000000000e+00  1.1141857185252728e-06 -3.8568574069284372e-05 0.0000000000000000e+00  1.1141857243647882e-06 -3.8568574067549649e-05 0.0000000000000000e+00  1.1141857242566488e-06 -3.8568574070585523e-05 0.0000000000000000e+00  1.1141857222020046e-06 -3.8568574052717763e-05 0.0000000000000000e+00  1.1141857120369223e-06 -3.8568574086631607e-05 0.0000000000000000e+00  1.1141857249054839e-06 -3.8568574069631425e-05 0.0000000000000000e+00  1.1141857291229120e-06 -3.8568574062865895e-05 0.0000000000000000e+00  1.1141857216613087e-06 -3.8568574056273946e-05 0.0000000000000000e+00  1.1141857138752881e-06 -3.8568574063646521e-05 0.0000000000000000e+00  1.1141857156055151e-06 -3.8568574082034590e-05 0.0000000000000000e+00  1.1141857086846077e-06 -3.8568574080647021e-05 0.0000000000000000e+00  1.1141857190659687e-06 -3.8568574082208062e-05 0.0000000000000000e+00  1.1141857300961645e-06 -3.8568574057401516e-05 0.0000000000000000e+00  1.1141857191741079e-06 -3.8568574071973193e-05 0.0000000000000000e+00  1.1141857156055151e-06 -3.8568574077957989e-05 0.0000000000000000e+00  1.1141857135508706e-06 -3.8568574067376176e-05 0.0000000000000000e+00  1.1141857287984943e-06 -3.8568574065294718e-05 0.0000000000000000e+00  1.1141857170113242e-06 -3.8568574066595551e-05 0.0000000000000000e+00  1.1141857193903861e-06 -3.8568574070932359e-05 0.0000000000000000e+00  1.1141857103066953e-06 -3.8568574085243828e-05 0.0000000000000000e+00  1.1141857192822469e-06 -3.8568574069371108e-05 0.0000000000000000e+00  1.1141857178764377e-06 -3.8568574086805079e-05 0.0000000000000000e+00  1.1141857304205819e-06 -3.8568574066855969e-05 0.0000000000000000e+00  1.1141857173357419e-06 -3.8568574081167228e-05 0.0000000000000000e+00  1.1141857333403398e-06 -3.8568574067462912e-05 0.0000000000000000e+00  1.1141857255543192e-06 -3.8568574065294508e-05 0.0000000000000000e+00  1.1141857260950150e-06 -3.8568574066595551e-05 0.0000000000000000e+00  1.1141857244729275e-06 -3.8568574070151734e-05 0.0000000000000000e+00  1.1141857215531695e-06 -3.8568574071452986e-05 0.0000000000000000e+00  1.1141857245810665e-06 -3.8568574068763955e-05 0.0000000000000000e+00  1.1141857267438501e-06 -3.8568574057835197e-05 0.0000000000000000e+00  1.1141857240403706e-06 -3.8568574057748461e-05 0.0000000000000000e+00  1.1141857151729582e-06 -4.3761920970659215e-05 0.0000000000000000e+00  5.3363979670784475e-05 9.6561800718222832e-05 0.0000000000000000e+00  5.3363979664948723e-05 9.6561800706079768e-05 0.0000000000000000e+00  5.3363979671315002e-05 9.6561800719697374e-05 0.0000000000000000e+00  5.3363979660262442e-05 9.6561800697059192e-05 0.0000000000000000e+00  5.3363979665125563e-05 9.6561800715620733e-05 0.0000000000000000e+00  5.3363979658670874e-05 9.6561800727850601e-05 0.0000000000000000e+00  5.3363979662472954e-05 9.6561800722386101e-05 0.0000000000000000e+00  5.3363979669104483e-05 9.6561800726549559e-05 0.0000000000000000e+00  5.3363979650978297e-05 9.6561800716227954e-05 0.0000000000000000e+00  5.3363979654957217e-05 9.6561800708941994e-05 0.0000000000000000e+00  5.3363979663445578e-05 9.6561800741121236e-05 0.0000000000000000e+00  5.3363979652569865e-05 9.6561800717268788e-05 0.0000000000000000e+00  5.3363979641694145e-05 9.6561800700528585e-05 0.0000000000000000e+00  5.3363979672199203e-05 9.6561800728457633e-05 0.0000000000000000e+00  5.3363979650889873e-05 9.6561800701916621e-05 0.0000000000000000e+00  5.3363979665567667e-05 9.6561800703998032e-05 0.0000000000000000e+00  5.3363979665832930e-05 9.6561800704778657e-05 0.0000000000000000e+00  5.3363979653630906e-05 9.6561800707988153e-05 0.0000000000000000e+00  5.3363979650094089e-05 9.6561800691334550e-05 0.0000000000000000e+00  5.3363979657344569e-05 9.6561800707294006e-05 0.0000000000000000e+00  5.3363979665744507e-05 9.6561800702350302e-05 0.0000000000000000e+00  5.3363979665656090e-05 9.6561800719610543e-05 0.0000000000000000e+00  5.3363979650005672e-05 9.6561800697753027e-05 0.0000000000000000e+00  5.3363979660792962e-05 9.6561800704345234e-05 0.0000000000000000e+00  5.3363979666893971e-05 9.6561800711544079e-05 0.0000000000000000e+00  5.3363979660174018e-05 9.6561800717268666e-05 0.0000000000000000e+00  5.3363979659112977e-05 9.6561800721432003e-05 0.0000000000000000e+00  5.3363979675293916e-05 9.6561800706253172e-05 0.0000000000000000e+00  5.3363979677416004e-05 9.6561800726289770e-05 0.0000000000000000e+00  5.3363979663180314e-05 9.6561800712671649e-05 0.0000000000000000e+00  5.3363979670077107e-05 9.6561800706513381e-05 0.0000000000000000e+00  5.3363979661500330e-05 9.6561800709028730e-05 0.0000000000000000e+00  5.3363979663180314e-05 9.6561800700615321e-05 0.0000000000000000e+00  5.3363979662915051e-05 9.6561800707640951e-05 0.0000000000000000e+00  5.3363979674144451e-05 9.6561800731840886e-05 0.0000000000000000e+00  5.3363979662296114e-05 9.6561800692375384e-05 0.0000000000000000e+00  5.3363979664418202e-05 9.6561800717008458e-05 0.0000000000000000e+00  5.3363979658936131e-05 9.6561800711370606e-05 0.0000000000000000e+00  5.3363979665125563e-05 9.6561800708768521e-05 0.0000000000000000e+00  5.3363979662915051e-05 9.6561800710763453e-05 0.0000000000000000e+00  5.3363979670696051e-05 9.6561800708595591e-05 0.0000000000000000e+00  5.3363979669811851e-05 9.6561800703477615e-05 0.0000000000000000e+00  5.3363979664241362e-05 9.6561800713799219e-05 0.0000000000000000e+00  5.3363979667689755e-05 9.6561800697666291e-05 0.0000000000000000e+00  5.3363979675736019e-05 9.6561800712671649e-05 0.0000000000000000e+00  5.3363979676443380e-05 9.6561800721952420e-05 0.0000000000000000e+00  5.3363979653277225e-05 9.6561800708335382e-05 0.0000000000000000e+00  5.3363979674851812e-05 9.6561800738692501e-05 0.0000000000000000e+00  5.3363979673525507e-05 9.6561800714146164e-05 0.0000000000000000e+00  5.3363979656460362e-05 9.6561800704605185e-05 0.0000000000000000e+00  5.3363979670784475e-05 -3.8320302485768237e-05 0.0000000000000000e+00  -2.8438721837493959e-04 -1.5565773849791908e-03 0.0000000000000000e+00  -2.8438721837222220e-04 -1.5565773849490067e-03 0.0000000000000000e+00  -2.8438721838967612e-04 -1.5565773849904668e-03 0.0000000000000000e+00  -2.8438721839500638e-04 -1.5565773849684353e-03 0.0000000000000000e+00  -2.8438721841204218e-04 -1.5565773850053850e-03 0.0000000000000000e+00  -2.8438721839688764e-04 -1.5565773849793652e-03 0.0000000000000000e+00  -2.8438721838978058e-04 -1.5565773849979243e-03 0.0000000000000000e+00  -2.8438721837284930e-04 -1.5565773849597628e-03 0.0000000000000000e+00  -2.8438721838371881e-04 -1.5565773849963655e-03 0.0000000000000000e+00  -2.8438721837264021e-04 -1.5565773849771077e-03 0.0000000000000000e+00  -2.8438721837891113e-04 -1.5565773849984471e-03 0.0000000000000000e+00  -2.8438721838371881e-04 -1.5565773850144066e-03 0.0000000000000000e+00  -2.8438721837222220e-04 -1.5565773849958427e-03 0.0000000000000000e+00  -2.8438721837044541e-04 -1.5565773849712096e-03 0.0000000000000000e+00  -2.8438721838643615e-04 -1.5565773849939388e-03 0.0000000000000000e+00  -2.8438721838685421e-04 -1.5565773850031285e-03 0.0000000000000000e+00  -2.8438721838486844e-04 -1.5565773849623625e-03 0.0000000000000000e+00  -2.8438721838371876e-04 -1.5565773849802345e-03 0.0000000000000000e+00  -2.8438721838800385e-04 -1.5565773849712096e-03 0.0000000000000000e+00  -2.8438721838685421e-04 -1.5565773849677402e-03 0.0000000000000000e+00  -2.8438721839082575e-04 -1.5565773849823162e-03 0.0000000000000000e+00  -2.8438721838831740e-04 -1.5565773849882099e-03 0.0000000000000000e+00  -2.8438721839406568e-04 -1.5565773849941080e-03 0.0000000000000000e+00  -2.8438721839448374e-04 -1.5565773849798876e-03 0.0000000000000000e+00  -2.8438721838800385e-04 -1.5565773849916793e-03 0.0000000000000000e+00  -2.8438721838549549e-04 -1.5565773849814445e-03 0.0000000000000000e+00  -2.8438721