<?xml version="1.0"?>
<VTKFile type="UnstructuredGrid"  version="0.1"  >
<UnstructuredGrid>
<Piece  NumberOfPoints="2601" NumberOfCells="5000">
<Points>
<DataArray  type="Float64"  NumberOfComponents="3"  format="ascii">0 0 0  0.02 0 0  0.04 0 0  0.06 0 0  0.08 0 0  0.1 0 0  0.12 0 0  0.14 0 0  0.16 0 0  0.18 0 0  0.2 0 0  0.22 0 0  0.24 0 0  0.26 0 0  0.28 0 0  0.3 0 0  0.32 0 0  0.34 0 0  0.36 0 0  0.38 0 0  0.4 0 0  0.42 0 0  0.44 0 0  0.46 0 0  0.48 0 0  0.5 0 0  0.52 0 0  0.54 0 0  0.5600000000000001 0 0  0.58 0 0  0.6 0 0  0.62 0 0  0.64 0 0  0.66 0 0  0.68 0 0  0.7 0 0  0.72 0 0  0.74 0 0  0.76 0 0  0.78 0 0  0.8 0 0  0.82 0 0  0.84 0 0  0.86 0 0  0.88 0 0  0.9 0 0  0.92 0 0  0.9399999999999999 0 0  0.96 0 0  0.98 0 0  1 0 0  0 0.01313563088723984 0  0.02 0.01313563088723984 0  0.04 0.01313563088723984 0  0.06 0.01313563088723984 0  0.08 0.01313563088723984 0  0.1 0.01313563088723984 0  0.12 0.01313563088723984 0  0.14 0.01313563088723984 0  0.16 0.01313563088723984 0  0.18 0.01313563088723984 0  0.2 0.01313563088723984 0  0.22 0.01313563088723984 0  0.24 0.01313563088723984 0  0.26 0.01313563088723984 0  0.28 0.01313563088723984 0  0.3 0.01313563088723984 0  0.32 0.01313563088723984 0  0.34 0.01313563088723984 0  0.36 0.01313563088723984 0  0.38 0.01313563088723984 0  0.4 0.01313563088723984 0  0.42 0.01313563088723984 0  0.44 0.01313563088723984 0  0.46 0.01313563088723984 0  0.48 0.01313563088723984 0  0.5 0.01313563088723984 0  0.52 0.01313563088723984 0  0.54 0.01313563088723984 0  0.5600000000000001 0.01313563088723984 0  0.58 0.01313563088723984 0  0.6 0.01313563088723984 0  0.62 0.01313563088723984 0  0.64 0.01313563088723984 0  0.66 0.01313563088723984 0  0.68 0.01313563088723984 0  0.7 0.01313563088723984 0  0.72 0.01313563088723984 0  0.74 0.01313563088723984 0  0.76 0.01313563088723984 0  0.78 0.01313563088723984 0  0.8 0.01313563088723984 0  0.82 0.01313563088723984 0  0.84 0.01313563088723984 0  0.86 0.01313563088723984 0  0.88 0.01313563088723984 0  0.9 0.01313563088723984 0  0.92 0.01313563088723984 0  0.9399999999999999 0.01313563088723984 0  0.96 0.01313563088723984 0  0.98 0.01313563088723984 0  1 0.01313563088723984 0  0 0.02664639863733726 0  0.02 0.02664639863733726 0  0.04 0.02664639863733726 0  0.06 0.02664639863733726 0  0.08 0.02664639863733726 0  0.1 0.02664639863733726 0  0.12 0.02664639863733726 0  0.14 0.02664639863733726 0  0.16 0.02664639863733726 0  0.18 0.02664639863733726 0  0.2 0.02664639863733726 0  0.22 0.02664639863733726 0  0.24 0.02664639863733726 0  0.26 0.02664639863733726 0  0.28 0.02664639863733726 0  0.3 0.02664639863733726 0  0.32 0.02664639863733726 0  0.34 0.02664639863733726 0  0.36 0.02664639863733726 0  0.38 0.02664639863733726 0  0.4 0.02664639863733726 0  0.42 0.02664639863733726 0  0.44 0.02664639863733726 0  0.46 0.02664639863733726 0  0.48 0.02664639863733726 0  0.5 0.02664639863733726 0  0.52 0.02664639863733726 0  0.54 0.02664639863733726 0  0.5600000000000001 0.02664639863733726 0  0.58 0.02664639863733726 0  0.6 0.02664639863733726 0  0.62 0.02664639863733726 0  0.64 0.02664639863733726 0  0.66 0.02664639863733726 0  0.68 0.02664639863733726 0  0.7 0.02664639863733726 0  0.72 0.02664639863733726 0  0.74 0.02664639863733726 0  0.76 0.02664639863733726 0  0.78 0.02664639863733726 0  0.8 0.02664639863733726 0  0.82 0.02664639863733726 0  0.84 0.02664639863733726 0  0.86 0.02664639863733726 0  0.88 0.02664639863733726 0  0.9 0.02664639863733726 0  0.92 0.02664639863733726 0  0.9399999999999999 0.02664639863733726 0  0.96 0.02664639863733726 0  0.98 0.02664639863733726 0  1 0.02664639863733726 0  0 0.04101652939099896 0  0.02 0.04101652939099896 0  0.04 0.04101652939099896 0  0.06 0.04101652939099896 0  0.08 0.04101652939099896 0  0.1 0.04101652939099896 0  0.12 0.04101652939099896 0  0.14 0.04101652939099896 0  0.16 0.04101652939099896 0  0.18 0.04101652939099896 0  0.2 0.04101652939099896 0  0.22 0.04101652939099896 0  0.24 0.04101652939099896 0  0.26 0.04101652939099896 0  0.28 0.04101652939099896 0  0.3 0.04101652939099896 0  0.32 0.04101652939099896 0  0.34 0.04101652939099896 0  0.36 0.04101652939099896 0  0.38 0.04101652939099896 0  0.4 0.04101652939099896 0  0.42 0.04101652939099896 0  0.44 0.04101652939099896 0  0.46 0.04101652939099896 0  0.48 0.04101652939099896 0  0.5 0.04101652939099896 0  0.52 0.04101652939099896 0  0.54 0.04101652939099896 0  0.5600000000000001 0.04101652939099896 0  0.58 0.04101652939099896 0  0.6 0.04101652939099896 0  0.62 0.04101652939099896 0  0.64 0.04101652939099896 0  0.66 0.04101652939099896 0  0.68 0.04101652939099896 0  0.7 0.04101652939099896 0  0.72 0.04101652939099896 0  0.74 0.04101652939099896 0  0.76 0.04101652939099896 0  0.78 0.04101652939099896 0  0.8 0.04101652939099896 0  0.82 0.04101652939099896 0  0.84 0.04101652939099896 0  0.86 0.04101652939099896 0  0.88 0.04101652939099896 0  0.9 0.04101652939099896 0  0.92 0.04101652939099896 0  0.9399999999999999 0.04101652939099896 0  0.96 0.04101652939099896 0  0.98 0.04101652939099896 0  1 0.04101652939099896 0  0 0.05705811164099547 0  0.02 0.05705811164099547 0  0.04 0.05705811164099547 0  0.06 0.05705811164099547 0  0.08 0.05705811164099547 0  0.1 0.05705811164099547 0  0.12 0.05705811164099547 0  0.14 0.05705811164099547 0  0.16 0.05705811164099547 0  0.18 0.05705811164099547 0  0.2 0.05705811164099547 0  0.22 0.05705811164099547 0  0.24 0.05705811164099547 0  0.26 0.05705811164099547 0  0.28 0.05705811164099547 0  0.3 0.05705811164099547 0  0.32 0.05705811164099547 0  0.34 0.05705811164099547 0  0.36 0.05705811164099547 0  0.38 0.05705811164099547 0  0.4 0.05705811164099547 0  0.42 0.05705811164099547 0  0.44 0.05705811164099547 0  0.46 0.05705811164099547 0  0.48 0.05705811164099547 0  0.5 0.05705811164099547 0  0.52 0.05705811164099547 0  0.54 0.05705811164099547 0  0.5600000000000001 0.05705811164099547 0  0.58 0.05705811164099547 0  0.6 0.05705811164099547 0  0.62 0.05705811164099547 0  0.64 0.05705811164099547 0  0.66 0.05705811164099547 0  0.68 0.05705811164099547 0  0.7 0.05705811164099547 0  0.72 0.05705811164099547 0  0.74 0.05705811164099547 0  0.76 0.05705811164099547 0  0.78 0.05705811164099547 0  0.8 0.05705811164099547 0  0.82 0.05705811164099547 0  0.84 0.05705811164099547 0  0.86 0.05705811164099547 0  0.88 0.05705811164099547 0  0.9 0.05705811164099547 0  0.92 0.05705811164099547 0  0.9399999999999999 0.05705811164099547 0  0.96 0.05705811164099547 0  0.98 0.05705811164099547 0  1 0.05705811164099547 0  0 0.07667714377545 0  0.02 0.07667714377545 0  0.04 0.07667714377545 0  0.06 0.07667714377545 0  0.08 0.07667714377545 0  0.1 0.07667714377545 0  0.12 0.07667714377545 0  0.14 0.07667714377545 0  0.16 0.07667714377545 0  0.18 0.07667714377545 0  0.2 0.07667714377545 0  0.22 0.07667714377545 0  0.24 0.07667714377545 0  0.26 0.07667714377545 0  0.28 0.07667714377545 0  0.3 0.07667714377545 0  0.32 0.07667714377545 0  0.34 0.07667714377545 0  0.36 0.07667714377545 0  0.38 0.07667714377545 0  0.4 0.07667714377545 0  0.42 0.07667714377545 0  0.44 0.07667714377545 0  0.46 0.07667714377545 0  0.48 0.07667714377545 0  0.5 0.07667714377545 0  0.52 0.07667714377545 0  0.54 0.07667714377545 0  0.5600000000000001 0.07667714377545 0  0.58 0.07667714377545 0  0.6 0.07667714377545 0  0.62 0.07667714377545 0  0.64 0.07667714377545 0  0.66 0.07667714377545 0  0.68 0.07667714377545 0  0.7 0.07667714377545 0  0.72 0.07667714377545 0  0.74 0.07667714377545 0  0.76 0.07667714377545 0  0.78 0.07667714377545 0  0.8 0.07667714377545 0  0.82 0.07667714377545 0  0.84 0.07667714377545 0  0.86 0.07667714377545 0  0.88 0.07667714377545 0  0.9 0.07667714377545 0  0.92 0.07667714377545 0  0.9399999999999999 0.07667714377545 0  0.96 0.07667714377545 0  0.98 0.07667714377545 0  1 0.07667714377545 0  0 0.1098730133816912 0  0.02 0.1098730133816912 0  0.04 0.1098730133816912 0  0.06 0.1098730133816912 0  0.08 0.1098730133816912 0  0.1 0.1098730133816912 0  0.12 0.1098730133816912 0  0.14 0.1098730133816912 0  0.16 0.1098730133816912 0  0.18 0.1098730133816912 0  0.2 0.1098730133816912 0  0.22 0.1098730133816912 0  0.24 0.1098730133816912 0  0.26 0.1098730133816912 0  0.28 0.1098730133816912 0  0.3 0.1098730133816912 0  0.32 0.1098730133816912 0  0.34 0.1098730133816912 0  0.36 0.1098730133816912 0  0.38 0.1098730133816912 0  0.4 0.1098730133816912 0  0.42 0.1098730133816912 0  0.44 0.1098730133816912 0  0.46 0.1098730133816912 0  0.48 0.1098730133816912 0  0.5 0.1098730133816912 0  0.52 0.1098730133816912 0  0.54 0.1098730133816912 0  0.5600000000000001 0.1098730133816912 0  0.58 0.1098730133816912 0  0.6 0.1098730133816912 0  0.62 0.1098730133816912 0  0.64 0.1098730133816912 0  0.66 0.1098730133816912 0  0.68 0.1098730133816912 0  0.7 0.1098730133816912 0  0.72 0.1098730133816912 0  0.74 0.1098730133816912 0  0.76 0.1098730133816912 0  0.78 0.1098730133816912 0  0.8 0.1098730133816912 0  0.82 0.1098730133816912 0  0.84 0.1098730133816912 0  0.86 0.1098730133816912 0  0.88 0.1098730133816912 0  0.9 0.1098730133816912 0  0.92 0.1098730133816912 0  0.9399999999999999 0.1098730133816912 0  0.96 0.1098730133816912 0  0.98 0.1098730133816912 0  1 0.1098730133816912 0  0 0.1603283563168221 0  0.02 0.1603283563168221 0  0.04 0.1603283563168221 0  0.06 0.1603283563168221 0  0.08 0.1603283563168221 0  0.1 0.1603283563168221 0  0.12 0.1603283563168221 0  0.14 0.1603283563168221 0  0.16 0.1603283563168221 0  0.18 0.1603283563168221 0  0.2 0.1603283563168221 0  0.22 0.1603283563168221 0  0.24 0.1603283563168221 0  0.26 0.1603283563168221 0  0.28 0.1603283563168221 0  0.3 0.1603283563168221 0  0.32 0.1603283563168221 0  0.34 0.1603283563168221 0  0.36 0.1603283563168221 0  0.38 0.1603283563168221 0  0.4 0.1603283563168221 0  0.42 0.1603283563168221 0  0.44 0.1603283563168221 0  0.46 0.1603283563168221 0  0.48 0.1603283563168221 0  0.5 0.1603283563168221 0  0.52 0.1603283563168221 0  0.54 0.1603283563168221 0  0.5600000000000001 0.1603283563168221 0  0.58 0.1603283563168221 0 
[...]
<PointData  Vectors="u_paraw"> 
<DataArray  type="Float64"  Name="u_paraw"  NumberOfComponents="3" format="ascii">-8.5893544994549909e-05 -6.4519633022280072e-04 0.0000000000000000e+00  -8.5893544998544787e-05 -6.4519633022259472e-04 0.0000000000000000e+00  -8.5893544983126484e-05 -6.4519633022640027e-04 0.0000000000000000e+00  -8.5893544995408312e-05 -6.4519633021992747e-04 0.0000000000000000e+00  -8.5893544993377846e-05 -6.4519633021644718e-04 0.0000000000000000e+00  -8.5893544989217870e-05 -6.4519633022854721e-04 0.0000000000000000e+00  -8.5893544994698458e-05 -6.4519633022840539e-04 0.0000000000000000e+00  -8.5893544990786114e-05 -6.4519633021932065e-04 0.0000000000000000e+00  -8.5893544994780993e-05 -6.4519633022067590e-04 0.0000000000000000e+00  -8.5893544988442002e-05 -6.4519633021993777e-04 0.0000000000000000e+00  -8.5893544990951184e-05 -6.4519633022545723e-04 0.0000000000000000e+00  -8.5893544990307385e-05 -6.4519633021471279e-04 0.0000000000000000e+00  -8.5893544994880048e-05 -6.4519633023031359e-04 0.0000000000000000e+00  -8.5893544995292736e-05 -6.4519633022567320e-04 0.0000000000000000e+00  -8.5893544995309243e-05 -6.4519633023773148e-04 0.0000000000000000e+00  -8.5893544995721945e-05 -6.4519633022663814e-04 0.0000000000000000e+00  -8.5893544996448279e-05 -6.4519633022664898e-04 0.0000000000000000e+00  -8.5893544993906082e-05 -6.4519633022589199e-04 0.0000000000000000e+00  -8.5893544990455948e-05 -6.4519633022251817e-04 0.0000000000000000e+00  -8.5893544990472455e-05 -6.4519633022384090e-04 0.0000000000000000e+00  -8.5893544986114396e-05 -6.4519633021328272e-04 0.0000000000000000e+00  -8.5893544991760067e-05 -6.4519633022671404e-04 0.0000000000000000e+00  -8.5893544994384812e-05 -6.4519633023239526e-04 0.0000000000000000e+00  -8.5893544992073713e-05 -6.4519633022324654e-04 0.0000000000000000e+00  -8.5893544990191823e-05 -6.4519633022938117e-04 0.0000000000000000e+00  -8.5893544993229269e-05 -6.4519633022875234e-04 0.0000000000000000e+00  -8.5893544992882596e-05 -6.4519633022942454e-04 0.0000000000000000e+00  -8.5893544994648937e-05 -6.4519633023249283e-04 0.0000000000000000e+00  -8.5893544993658464e-05 -6.4519633022833308e-04 0.0000000000000000e+00  -8.5893544994450840e-05 -6.4519633022329880e-04 0.0000000000000000e+00  -8.5893544994203222e-05 -6.4519633022965222e-04 0.0000000000000000e+00  -8.5893544991776574e-05 -6.4519633021903789e-04 0.0000000000000000e+00  -8.5893544997801919e-05 -6.4519633022465405e-04 0.0000000000000000e+00  -8.5893544989581037e-05 -6.4519633022771150e-04 0.0000000000000000e+00  -8.5893544997636849e-05 -6.4519633022575267e-04 0.0000000000000000e+00  -8.5893544989168349e-05 -6.4519633022587920e-04 0.0000000000000000e+00  -8.5893544996250195e-05 -6.4519633023291567e-04 0.0000000000000000e+00  -8.5893544993295297e-05 -6.4519633022754887e-04 0.0000000000000000e+00  -8.5893544993097200e-05 -6.4519633023056295e-04 0.0000000000000000e+00  -8.5893544995061625e-05 -6.4519633022735372e-04 0.0000000000000000e+00  -8.5893544998280648e-05 -6.4519633022735729e-04 0.0000000000000000e+00  -8.5893544992238796e-05 -6.4519633022891497e-04 0.0000000000000000e+00  -8.5893544991512449e-05 -6.4519633022570573e-04 0.0000000000000000e+00  -8.5893544989993739e-05 -6.4519633022659477e-04 0.0000000000000000e+00  -8.5893545001648248e-05 -6.4519633023357704e-04 0.0000000000000000e+00  -8.5893544991512449e-05 -6.4519633022330964e-04 0.0000000000000000e+00  -8.5893544992255303e-05 -6.4519633022556836e-04 0.0000000000000000e+00  -8.5893544992123234e-05 -6.4519633022582499e-04 0.0000000000000000e+00  -8.5893544991264830e-05 -6.4519633022616109e-04 0.0000000000000000e+00  -8.5893544999172079e-05 -6.4519633022802592e-04 0.0000000000000000e+00  -8.5893544994549882e-05 -3.3319885719325907e-15 0.0000000000000000e+00  -8.0672900840801358e-05 -5.8957872616767569e-04 0.0000000000000000e+00  -8.0672900836307516e-05 -5.8957872616559402e-04 0.0000000000000000e+00  -8.0672900835184052e-05 -5.8957872616524729e-04 0.0000000000000000e+00  -8.0672900834413699e-05 -5.8957872616691674e-04 0.0000000000000000e+00  -8.0672900831043308e-05 -5.8957872615952249e-04 0.0000000000000000e+00  -8.0672900842374223e-05 -5.8957872616182143e-04 0.0000000000000000e+00  -8.0672900830882819e-05 -5.8957872616494317e-04 0.0000000000000000e+00  -8.0672900831075414e-05 -5.8957872616264542e-04 0.0000000000000000e+00  -8.0672900842791506e-05 -5.8957872617131904e-04 0.0000000000000000e+00  -8.0672900833033442e-05 -5.8957872616967029e-04 0.0000000000000000e+00  -8.0672900839966807e-05 -5.8957872616852180e-04 0.0000000000000000e+00  -8.0672900834606281e-05 -5.8957872616565950e-04 0.0000000000000000e+00  -8.0672900834927272e-05 -5.8957872616420591e-04 0.0000000000000000e+00  -8.0672900835376661e-05 -5.8957872616188572e-04 0.0000000000000000e+00  -8.0672900840191494e-05 -5.8957872616717815e-04 0.0000000000000000e+00  -8.0672900828732182e-05 -5.8957872616715494e-04 0.0000000000000000e+00  -8.0672900838747052e-05 -5.8957872616177730e-04 0.0000000000000000e+00  -8.0672900836917407e-05 -5.8957872616952002e-04 0.0000000000000000e+00  -8.0672900833675425e-05 -5.8957872617155680e-04 0.0000000000000000e+00  -8.0672900834156906e-05 -5.8957872616303498e-04 0.0000000000000000e+00  -8.0672900826453162e-05 -5.8957872616273292e-04 0.0000000000000000e+00  -8.0672900839292731e-05 -5.8957872616060636e-04 0.0000000000000000e+00  -8.0672900833386526e-05 -5.8957872615976068e-04 0.0000000000000000e+00  -8.0672900836885314e-05 -5.8957872617179685e-04 0.0000000000000000e+00  -8.0672900833547029e-05 -5.8957872616778378e-04 0.0000000000000000e+00  -8.0672900832712451e-05 -5.8957872616791389e-04 0.0000000000000000e+00  -8.0672900836114935e-05 -5.8957872617376858e-04 0.0000000000000000e+00  -8.0672900833450725e-05 -5.8957872616266635e-04 0.0000000000000000e+00  -8.0672900830529721e-05 -5.8957872616650757e-04 0.0000000000000000e+00  -8.0672900836435926e-05 -5.8957872617170859e-04 0.0000000000000000e+00  -8.0672900841603844e-05 -5.8957872616956187e-04 0.0000000000000000e+00  -8.0672900832198864e-05 -5.8957872616546359e-04 0.0000000000000000e+00  -8.0672900839806304e-05 -5.8957872616581053e-04 0.0000000000000000e+00  -8.0672900832680358e-05 -5.8957872616357708e-04 0.0000000000000000e+00  -8.0672900834959378e-05 -5.8957872617231889e-04 0.0000000000000000e+00  -8.0672900834285303e-05 -5.8957872616067141e-04 0.0000000000000000e+00  -8.0672900841860637e-05 -5.8957872617344332e-04 0.0000000000000000e+00  -8.0672900830850713e-05 -5.8957872616383728e-04 0.0000000000000000e+00  -8.0672900837302597e-05 -5.8957872617719466e-04 0.0000000000000000e+00  -8.0672900830529721e-05 -5.8957872616314340e-04 0.0000000000000000e+00  -8.0672900836885314e-05 -5.8957872616887113e-04 0.0000000000000000e+00  -8.0672900835119867e-05 -5.8957872617205554e-04 0.0000000000000000e+00  -8.0672900834028509e-05 -5.8957872616897640e-04 0.0000000000000000e+00  -8.0672900829309967e-05 -5.8957872616693810e-04 0.0000000000000000e+00  -8.0672900836500124e-05 -5.8957872615837291e-04 0.0000000000000000e+00  -8.0672900831267995e-05 -5.8957872616318676e-04 0.0000000000000000e+00  -8.0672900835216172e-05 -5.8957872616728819e-04 0.0000000000000000e+00  -8.0672900835055669e-05 -5.8957872616257961e-04 0.0000000000000000e+00  -8.0672900835793943e-05 -5.8957872616472633e-04 0.0000000000000000e+00  -8.0672900833129733e-05 -5.8957872616420591e-04 0.0000000000000000e+00  -8.0672900840801371e-05 -9.4735995479228131e-04 0.0000000000000000e+00  1.7690970694584873e-04 3.4583265598533974e-04 0.0000000000000000e+00  1.7690970694578836e-04 3.4583265598000547e-04 0.0000000000000000e+00  1.7690970695472143e-04 3.4583265599505425e-04 0.0000000000000000e+00  1.7690970695164316e-04 3.4583265599314589e-04 0.0000000000000000e+00  1.7690970694301186e-04 3.4583265597579866e-04 0.0000000000000000e+00  1.7690970694874593e-04 3.4583265598616395e-04 0.0000000000000000e+00  1.7690970695327283e-04 3.4583265598928591e-04 0.0000000000000000e+00  1.7690970694898738e-04 3.4583265598191388e-04 0.0000000000000000e+00  1.7690970695055668e-04 3.4583265598612059e-04 0.0000000000000000e+00  1.7690970694753875e-04 3.4583265598364806e-04 0.0000000000000000e+00  1.7690970694120110e-04 3.4583265597193922e-04 0.0000000000000000e+00  1.7690970694910808e-04 3.4583265598135010e-04 0.0000000000000000e+00  1.7690970694699554e-04 3.4583265597896431e-04 0.0000000000000000e+00  1.7690970694868557e-04 3.4583265598612004e-04 0.0000000000000000e+00  1.7690970694524512e-04 3.4583265598295515e-04 0.0000000000000000e+00  1.7690970694059753e-04 3.4583265596525999e-04 0.0000000000000000e+00  1.7690970695164316e-04 3.4583265599388293e-04 0.0000000000000000e+00  1.7690970693818317e-04 3.4583265597675351e-04 0.0000000000000000e+00  1.7690970695429894e-04 3.4583265598850529e-04 0.0000000000000000e+00  1.7690970694609015e-04 3.4583265597822705e-04 0.0000000000000000e+00  1.7690970694880629e-04 3.4583265597818466e-04 0.0000000000000000e+00  1.7690970694959096e-04 3.4583265598113271e-04 0.0000000000000000e+00  1.7690970694778021e-04 3.4583265598477563e-04 0.0000000000000000e+00  1.7690970693854532e-04 3.4583265597757751e-04 0.0000000000000000e+00  1.7690970694977202e-04 3.4583265598052556e-04 0.0000000000000000e+00  1.7690970694717660e-04 3.4583265597853063e-04 0.0000000000000000e+00  1.7690970695116029e-04 3.4583265598082914e-04 0.0000000000000000e+00  1.7690970694989275e-04 3.4583265597918115e-04 0.0000000000000000e+00  1.7690970694784057e-04 3.4583265598048414e-04 0.0000000000000000e+00  1.7690970694627124e-04 3.4583265597631886e-04 0.0000000000000000e+00  1.7690970694826306e-04 3.4583265598165313e-04 0.0000000000000000e+00  1.7690970695224674e-04 3.4583265597900768e-04 0.0000000000000000e+00  1.7690970694560727e-04 3.4583265597458413e-04 0.0000000000000000e+00  1.7690970694126147e-04 3.4583265597857400e-04 0.0000000000000000e+00  1.7690970694301186e-04 3.4583265597488966e-04 0.0000000000000000e+00  1.7690970694168398e-04 3.4583265596890291e-04 0.0000000000000000e+00  1.7690970695315213e-04 3.4583265598694404e-04 0.0000000000000000e+00  1.7690970694916845e-04 3.4583265597801021e-04 0.0000000000000000e+00  1.7690970694729733e-04 3.4583265597679590e-04 0.0000000000000000e+00  1.7690970695001347e-04 3.4583265598104598e-04 0.0000000000000000e+00  1.7690970694325331e-04 3.4583265597792543e-04 0.0000000000000000e+00  1.7690970694880629e-04 3.4583265598360469e-04 0.0000000000000000e+00  1.7690970694759912e-04 3.4583265597974493e-04 0.0000000000000000e+00  1.7690970694953060e-04 3.4583265597206878e-04 0.0000000000000000e+00  1.7690970694566764e-04 3.4583265597532139e-04 0.0000000000000000e+00  1.7690970694814236e-04 3.4583265598143629e-04 0.0000000000000000e+00  1.7690970694512443e-04 3.4583265598369338e-04 0.0000000000000000e+00  1.7690970695079814e-04 3.4583265598512258e-04 0.0000000000000000e+00  1.7690970694844414e-04 3.4583265598494911e-04 0.0000000000000000e+00  1.7690970695369534e-04 3.4583265598390827e-04 0.0000000000000000e+00  1.7690970694584873e-04 1.0647817782560677e-04 0.0000000000000000e+00  -2.4541719851527794e-04 -1.2048221758163662e-03 0.0000000000000000e+00  -2.4541719851765701e-04 -1.2048221758148916e-03 0.0000000000000000e+00  -2.4541719850846514e-04 -1.2048221758194889e-03 0.0000000000000000e+00  -2.4541719850965468e-04 -1.2048221758073454e-03 0.0000000000000000e+00  -2.4541719851398026e-04 -1.2048221758152384e-03 0.0000000000000000e+00  -2.4541719850987092e-04 -1.2048221758111629e-03 0.0000000000000000e+00  -2.4541719851300703e-04 -1.2048221758223499e-03 0.0000000000000000e+00  -2.4541719851495350e-04 -1.2048221758122904e-03 0.0000000000000000e+00  -2.4541719850781630e-04 -1.2048221758129843e-03 0.0000000000000000e+00  -2.4541719851268258e-04 -1.2048221758129824e-03 0.0000000000000000e+00  -2.4541719851917094e-04 -1.2048221758184487e-03 0.0000000000000000e+00  -2.4541719851398021e-04 -1.2048221758223518e-03 0.0000000000000000e+00  -2.4541719850943843e-04 -1.2048221758136763e-03 0.0000000000000000e+00  -2.4541719851354772e-04 -1.2048221758131558e-03 0.0000000000000000e+00  -2.4541719851452090e-04 -1.2048221758143736e-03 0.0000000000000000e+00  -2.4541719850965468e-04 -1.2048221758087323e-03 0.0000000000000000e+00  -2.4541719850846514e-04 -1.2048221758101201e-03 0.0000000000000000e+00  -2.4541719851884649e-04 -1.2048221758125522e-03 0.0000000000000000e+00  -2.4541719851235819e-04 -1.2048221758172324e-03 0.0000000000000000e+00  -2.4541719851279073e-04 -1.2048221758121150e-03 0.0000000000000000e+00  -2.4541719851008722e-04 -1.2048221758120317e-03 0.0000000000000000e+00  -2.4541719850792445e-04 -1.2048221758069108e-03 0.0000000000000000e+00  -2.4541719851430466e-04 -1.2048221758166253e-03 0.0000000000000000e+00  -2.4541719851257443e-04 -1.2048221758175829e-03 0.0000000000000000e+00  -2.4541719851333142e-04 -1.2048221758098599e-03 0.0000000000000000e+00  -2.4541719851214189e-04 -1.2048221758094262e-03 0.0000000000000000e+00  -2.4541719851311512e-04 -1.2048221758210488e-03 0.0000000000000000e+00  -2.4541719851073606e-04 -1.2048221758198345e-03 0.0000000000000000e+00  -2.4541719851203374e-04 -1.2048221758186269e-03 0.0000000000000000e+00  -2.4541719851354772e-04 -1.2048221758234774e-03 0.0000000000000000e+00  -2.4541719851581864e-04 -1.2048221758239979e-03 0.0000000000000000e+00  -2.4541719850954653e-04 -1.2048221758154110e-03 0.0000000000000000e+00  -2.4541719851192559e-04 -1.2048221758132426e-03 0.0000000000000000e+00  -2.4541719851419656e-04 -1.2048221758118548e-03 0.0000000000000000e+00  -2.4541719851614303e-04 -1.2048221758246985e-03 0.0000000000000000e+00  -2.4541719851527794e-04 -1.2048221758218295e-03 0.0000000000000000e+00  -2.4541719850338262e-04 -1.2048221758081251e-03 0.0000000000000000e+00  -2.4541719850933028e-04 -1.2048221758111609e-03 0.0000000000000000e+00  -2.4541719851279073e-04 -1.2048221758167120e-03 0.0000000000000000e+00  -2.4541719850954653e-04 -1.2048221758215693e-03 0.0000000000000000e+00  -2.4541719851084421e-04 -1.2048221758149840e-03 0.0000000000000000e+00  -2.4541719850997912e-04 -1.2048221758115079e-03 0.0000000000000000e+00  -2.4541719850662677e-04 -1.2048221758135895e-03 0.0000000000000000e+00  -2.4541719851106051e-04 -1.2048221758142834e-03 0.0000000000000000e+00  -2.4541719850641053e-04 -1.2048221758095129e-03 0.0000000000000000e+00  -2.4541719851062796e-04 -1.2048221758163651e-03 0.0000000000000000e+00  -2.4541719850684307e-04 -1.2048221758175861e-03 0.0000000000000000e+00  -2.4541719850651868e-04 -1.2048221758077782e-03 0.0000000000000000e+00  -2.4541719851106051e-04 -1.2048221758082119e-03 0.0000000000000000e+00  -2.4541719850900584e-04 -1.2048221758107272e-03 0.0000000000000000e+00  -2.4541719851527794e-04 -1.6567596285176951e-04 0.0000000000000000e+00  3.1013267499228713e-04 -3.4962403279957527e-04 0.0000000000000000e+00  3.1013267499157979e-04 -3.4962403280781521e-04 0.0000000000000000e+00  3.1013267498592091e-04 -3.4962403281093782e-04 0.0000000000000000e+00  3.1013267499043032e-04 -3.4962403280564675e-04 0.0000000000000000e+00  3.1013267498300299e-04 -3.4962403279636598e-04 0.0000000000000000e+00  3.1013267498945768e-04 -3.4962403279272338e-04 0.0000000000000000e+00  3.1013267497460303e-04 -3.4962403281119770e-04 0.0000000000000000e+00  3.1013267499051874e-04 -3.4962403279810103e-04 0.0000000000000000e+00  3.1013267498326824e-04 -3.4962403280365214e-04 0.0000000000000000e+00  3.1013267498326824e-04 -3.4962403280417207e-04 0.0000000000000000e+00  3.1013267498141144e-04 -3.4962403280200415e-04 0.0000000000000000e+00  3.1013267498114619e-04 -3.4962403280070311e-04 0.0000000000000000e+00  3.1013267498494822e-04 -3.4962403279810054e-04 0.0000000000000000e+00  3.1013267497796303e-04 -3.4962403281085076e-04 0.0000000000000000e+00  3.1013267498883877e-04 -3.4962403280226480e-04 0.0000000000000000e+00  3.1013267498468297e-04 -3.4962403280686089e-04 0.0000000000000000e+00  3.1013267498530194e-04 -3.4962403280816193e-04 0.0000000000000000e+00  3.1013267498371038e-04 -3.4962403279341771e-04 0.0000000000000000e+00  3.1013267498114619e-04 -3.4962403280590679e-04 0.0000000000000000e+00  3.1013267498910402e-04 -3.4962403280772825e-04 0.0000000000000000e+00  3.1013267498583244e-04 -3.4962403280243827e-04 0.0000000000000000e+00  3.1013267498185352e-04 -3.4962403280894256e-04 0.0000000000000000e+00  3.1013267498220719e-04 -3.4962403280642721e-04 0.0000000000000000e+00  3.1013267497822828e-04 -3.4962403280165764e-04 0.0000000000000000e+00  3.1013267498114619e-04 -3.4962403280590679e-04 0.0000000000000000e+00  3.1013267498583244e-04 -3.4962403280842214e-04 0.0000000000000000e+00  3.1013267498565560e-04 -3.4962403280174346e-04 0.0000000000000000e+00  3.1013267499635446e-04 -3.4962403279653929e-04 0.0000000000000000e+00  3.1013267498556719e-04 -3.4962403281067918e-04 0.0000000000000000e+00  3.1013267497893566e-04 -3.4962403281024360e-04 0.0000000000000000e+00  3.1013267498875030e-04 -3.4962403280972319e-04 0.0000000000000000e+00  3.1013267499007665e-04 -3.4962403280425881e-04 0.0000000000000000e+00  3.1013267498096930e-04 -3.4962403280876909e-04 0.0000000000000000e+00  3.1013267498936927e-04 -3.4962403280729457e-04 0.0000000000000000e+00  3.1013267498653982e-04 -3.4962403279584729e-04 0.0000000000000000e+00  3.1013267498424088e-04 -3.4962403280920277e-04 0.0000000000000000e+00  3.1013267498901560e-04 -3.4962403281119770e-04 0.0000000000000000e+00  3.1013267498512510e-04 -3.4962403281128444e-04 0.0000000000000000e+00  3.1013267498998818e-04 -3.4962403279541172e-04 0.0000000000000000e+00  3.1013267499069557e-04 -3.4962403280078936e-04 0.0000000000000000e+00  3.1013267498875030e-04 -3.4962403280174535e-04 0.0000000000000000e+00  3.1013267498707032e-04 -3.4962403281223853e-04 0.0000000000000000e+00  3.1013267498786613e-04 -3.4962403282030500e-04 0.0000000000000000e+00  3.1013267499290610e-04 -3.4962403280052915e-04 0.0000000000000000e+00  3.1013267499043032e-04 -3.4962403279966179e-04 0.0000000000000000e+00  3.1013267498388722e-04 -3.4962403281163138e-04 0.0000000000000000e+00  3.1013267498813138e-04 -3.4962403280400050e-04 0.0000000000000000e+00  3.1013267498680507e-04 -3.4962403280998339e-04 0.0000000000000000e+00  3.1013267499219871e-04 -3.4962403280460575e-04 0.0000000000000000e+00  3.1013267498627457e-04 -3.4962403281102423e-04 0.0000000000000000e+00  3.1013267499228713e-04 -1.0596450398061049e-03 0.0000000000000000e+00  7.4661097600399267e-04 2.0914528189775253e-03 0.0000000000000000e+00  7.4661097598737488e-04 2.0914528189716272e-03 0.0000000000000000e+00  7.4661097599019674e-04 2.0914528189766583e-03 0.0000000000000000e+00  7.4661097598622520e-04 2.0914528189574020e-03 0.0000000000000000e+00  7.4661097598727037e-04 2.0914528189780453e-03 0.0000000000000000e+00  7.4661097598246269e-04 2.0914528189572299e-03 0.0000000000000000e+00  7.4661097598988308e-04 2.0914528189688495e-03 0.0000000000000000e+00  7.4661097598862898e-04 2.0914528189548013e-03 0.0000000000000000e+00  7.4661097599469086e-04 2.0914528189591381e-03 0.0000000000000000e+00  7.4661097599479527e-04 2.0914528189712781e-03 0.0000000000000000e+00  7.4661097600085726e-04 2.0914528189723220e-03 0.0000000000000000e+00  7.4661097599521345e-04 2.0914528189709342e-03 0.0000000000000000e+00  7.4661097599239149e-04 2.0914528189617371e-03 0.0000000000000000e+00  7.4661097599489979e-04 2.0914528189724924e-03 0.0000000000000000e+00  7.4661097598685219e-04 2.0914528189676413e-03 0.0000000000000000e+00  7.4661097598758381e-04 2.0914528189520227e-03 0.0000000000000000e+00  7.4661097599134632e-04 2.0914528189726659e-03 0.0000000000000000e+00  7.4661097598706122e-04 2.0914528189603554e-03 0.0000000000000000e+00  7.4661097598476196e-04 2.0914528189629514e-03 0.0000000000000000e+00  7.4661097598706122e-04 2.0914528189709312e-03 0.0000000000000000e+00  7.4661097598821091e-04 2.0914528189634779e-03 0.0000000000000000e+00  7.4661097598956953e-04 2.0914528189679821e-03 0.0000000000000000e+00  7.4661097598800188e-04 2.0914528189632984e-03 0.0000000000000000e+00  7.4661097598476196e-04 2.0914528189652126e-03 0.0000000000000000e+00 