<?xml version="1.0"?>
<VTKFile type="UnstructuredGrid"  version="0.1"  >
<UnstructuredGrid>
<Piece  NumberOfPoints="2601" NumberOfCells="5000">
<Points>
<DataArray  type="Float64"  NumberOfComponents="3"  format="ascii">0 0 0  0.02 0 0  0.04 0 0  0.06 0 0  0.08 0 0  0.1 0 0  0.12 0 0  0.14 0 0  0.16 0 0  0.18 0 0  0.2 0 0  0.22 0 0  0.24 0 0  0.26 0 0  0.28 0 0  0.3 0 0  0.32 0 0  0.34 0 0  0.36 0 0  0.38 0 0  0.4 0 0  0.42 0 0  0.44 0 0  0.46 0 0  0.48 0 0  0.5 0 0  0.52 0 0  0.54 0 0  0.5600000000000001 0 0  0.58 0 0  0.6 0 0  0.62 0 0  0.64 0 0  0.66 0 0  0.68 0 0  0.7 0 0  0.72 0 0  0.74 0 0  0.76 0 0  0.78 0 0  0.8 0 0  0.82 0 0  0.84 0 0  0.86 0 0  0.88 0 0  0.9 0 0  0.92 0 0  0.9399999999999999 0 0  0.96 0 0  0.98 0 0  1 0 0  0 0.01313563088723984 0  0.02 0.01313563088723984 0  0.04 0.01313563088723984 0  0.06 0.01313563088723984 0  0.08 0.01313563088723984 0  0.1 0.01313563088723984 0  0.12 0.01313563088723984 0  0.14 0.01313563088723984 0  0.16 0.01313563088723984 0  0.18 0.01313563088723984 0  0.2 0.01313563088723984 0  0.22 0.01313563088723984 0  0.24 0.01313563088723984 0  0.26 0.01313563088723984 0  0.28 0.01313563088723984 0  0.3 0.01313563088723984 0  0.32 0.01313563088723984 0  0.34 0.01313563088723984 0  0.36 0.01313563088723984 0  0.38 0.01313563088723984 0  0.4 0.01313563088723984 0  0.42 0.01313563088723984 0  0.44 0.01313563088723984 0  0.46 0.01313563088723984 0  0.48 0.01313563088723984 0  0.5 0.01313563088723984 0  0.52 0.01313563088723984 0  0.54 0.01313563088723984 0  0.5600000000000001 0.01313563088723984 0  0.58 0.01313563088723984 0  0.6 0.01313563088723984 0  0.62 0.01313563088723984 0  0.64 0.01313563088723984 0  0.66 0.01313563088723984 0  0.68 0.01313563088723984 0  0.7 0.01313563088723984 0  0.72 0.01313563088723984 0  0.74 0.01313563088723984 0  0.76 0.01313563088723984 0  0.78 0.01313563088723984 0  0.8 0.01313563088723984 0  0.82 0.01313563088723984 0  0.84 0.01313563088723984 0  0.86 0.01313563088723984 0  0.88 0.01313563088723984 0  0.9 0.01313563088723984 0  0.92 0.01313563088723984 0  0.9399999999999999 0.01313563088723984 0  0.96 0.01313563088723984 0  0.98 0.01313563088723984 0  1 0.01313563088723984 0  0 0.02664639863733726 0  0.02 0.02664639863733726 0  0.04 0.02664639863733726 0  0.06 0.02664639863733726 0  0.08 0.02664639863733726 0  0.1 0.02664639863733726 0  0.12 0.02664639863733726 0  0.14 0.02664639863733726 0  0.16 0.02664639863733726 0  0.18 0.02664639863733726 0  0.2 0.02664639863733726 0  0.22 0.02664639863733726 0  0.24 0.02664639863733726 0  0.26 0.02664639863733726 0  0.28 0.02664639863733726 0  0.3 0.02664639863733726 0  0.32 0.02664639863733726 0  0.34 0.02664639863733726 0  0.36 0.02664639863733726 0  0.38 0.02664639863733726 0  0.4 0.02664639863733726 0  0.42 0.02664639863733726 0  0.44 0.02664639863733726 0  0.46 0.02664639863733726 0  0.48 0.02664639863733726 0  0.5 0.02664639863733726 0  0.52 0.02664639863733726 0  0.54 0.02664639863733726 0  0.5600000000000001 0.02664639863733726 0  0.58 0.02664639863733726 0  0.6 0.02664639863733726 0  0.62 0.02664639863733726 0  0.64 0.02664639863733726 0  0.66 0.02664639863733726 0  0.68 0.02664639863733726 0  0.7 0.02664639863733726 0  0.72 0.02664639863733726 0  0.74 0.02664639863733726 0  0.76 0.02664639863733726 0  0.78 0.02664639863733726 0  0.8 0.02664639863733726 0  0.82 0.02664639863733726 0  0.84 0.02664639863733726 0  0.86 0.02664639863733726 0  0.88 0.02664639863733726 0  0.9 0.02664639863733726 0  0.92 0.02664639863733726 0  0.9399999999999999 0.02664639863733726 0  0.96 0.02664639863733726 0  0.98 0.02664639863733726 0  1 0.02664639863733726 0  0 0.04101652939099896 0  0.02 0.04101652939099896 0  0.04 0.04101652939099896 0  0.06 0.04101652939099896 0  0.08 0.04101652939099896 0  0.1 0.04101652939099896 0  0.12 0.04101652939099896 0  0.14 0.04101652939099896 0  0.16 0.04101652939099896 0  0.18 0.04101652939099896 0  0.2 0.04101652939099896 0  0.22 0.04101652939099896 0  0.24 0.04101652939099896 0  0.26 0.04101652939099896 0  0.28 0.04101652939099896 0  0.3 0.04101652939099896 0  0.32 0.04101652939099896 0  0.34 0.04101652939099896 0  0.36 0.04101652939099896 0  0.38 0.04101652939099896 0  0.4 0.04101652939099896 0  0.42 0.04101652939099896 0  0.44 0.04101652939099896 0  0.46 0.04101652939099896 0  0.48 0.04101652939099896 0  0.5 0.04101652939099896 0  0.52 0.04101652939099896 0  0.54 0.04101652939099896 0  0.5600000000000001 0.04101652939099896 0  0.58 0.04101652939099896 0  0.6 0.04101652939099896 0  0.62 0.04101652939099896 0  0.64 0.04101652939099896 0  0.66 0.04101652939099896 0  0.68 0.04101652939099896 0  0.7 0.04101652939099896 0  0.72 0.04101652939099896 0  0.74 0.04101652939099896 0  0.76 0.04101652939099896 0  0.78 0.04101652939099896 0  0.8 0.04101652939099896 0  0.82 0.04101652939099896 0  0.84 0.04101652939099896 0  0.86 0.04101652939099896 0  0.88 0.04101652939099896 0  0.9 0.04101652939099896 0  0.92 0.04101652939099896 0  0.9399999999999999 0.04101652939099896 0  0.96 0.04101652939099896 0  0.98 0.04101652939099896 0  1 0.04101652939099896 0  0 0.05705811164099547 0  0.02 0.05705811164099547 0  0.04 0.05705811164099547 0  0.06 0.05705811164099547 0  0.08 0.05705811164099547 0  0.1 0.05705811164099547 0  0.12 0.05705811164099547 0  0.14 0.05705811164099547 0  0.16 0.05705811164099547 0  0.18 0.05705811164099547 0  0.2 0.05705811164099547 0  0.22 0.05705811164099547 0  0.24 0.05705811164099547 0  0.26 0.05705811164099547 0  0.28 0.05705811164099547 0  0.3 0.05705811164099547 0  0.32 0.05705811164099547 0  0.34 0.05705811164099547 0  0.36 0.05705811164099547 0  0.38 0.05705811164099547 0  0.4 0.05705811164099547 0  0.42 0.05705811164099547 0  0.44 0.05705811164099547 0  0.46 0.05705811164099547 0  0.48 0.05705811164099547 0  0.5 0.05705811164099547 0  0.52 0.05705811164099547 0  0.54 0.05705811164099547 0  0.5600000000000001 0.05705811164099547 0  0.58 0.05705811164099547 0  0.6 0.05705811164099547 0  0.62 0.05705811164099547 0  0.64 0.05705811164099547 0  0.66 0.05705811164099547 0  0.68 0.05705811164099547 0  0.7 0.05705811164099547 0  0.72 0.05705811164099547 0  0.74 0.05705811164099547 0  0.76 0.05705811164099547 0  0.78 0.05705811164099547 0  0.8 0.05705811164099547 0  0.82 0.05705811164099547 0  0.84 0.05705811164099547 0  0.86 0.05705811164099547 0  0.88 0.05705811164099547 0  0.9 0.05705811164099547 0  0.92 0.05705811164099547 0  0.9399999999999999 0.05705811164099547 0  0.96 0.05705811164099547 0  0.98 0.05705811164099547 0  1 0.05705811164099547 0  0 0.07667714377545 0  0.02 0.07667714377545 0  0.04 0.07667714377545 0  0.06 0.07667714377545 0  0.08 0.07667714377545 0  0.1 0.07667714377545 0  0.12 0.07667714377545 0  0.14 0.07667714377545 0  0.16 0.07667714377545 0  0.18 0.07667714377545 0  0.2 0.07667714377545 0  0.22 0.07667714377545 0  0.24 0.07667714377545 0  0.26 0.07667714377545 0  0.28 0.07667714377545 0  0.3 0.07667714377545 0  0.32 0.07667714377545 0  0.34 0.07667714377545 0  0.36 0.07667714377545 0  0.38 0.07667714377545 0  0.4 0.07667714377545 0  0.42 0.07667714377545 0  0.44 0.07667714377545 0  0.46 0.07667714377545 0  0.48 0.07667714377545 0  0.5 0.07667714377545 0  0.52 0.07667714377545 0  0.54 0.07667714377545 0  0.5600000000000001 0.07667714377545 0  0.58 0.07667714377545 0  0.6 0.07667714377545 0  0.62 0.07667714377545 0  0.64 0.07667714377545 0  0.66 0.07667714377545 0  0.68 0.07667714377545 0  0.7 0.07667714377545 0  0.72 0.07667714377545 0  0.74 0.07667714377545 0  0.76 0.07667714377545 0  0.78 0.07667714377545 0  0.8 0.07667714377545 0  0.82 0.07667714377545 0  0.84 0.07667714377545 0  0.86 0.07667714377545 0  0.88 0.07667714377545 0  0.9 0.07667714377545 0  0.92 0.07667714377545 0  0.9399999999999999 0.07667714377545 0  0.96 0.07667714377545 0  0.98 0.07667714377545 0  1 0.07667714377545 0  0 0.1098730133816912 0  0.02 0.1098730133816912 0  0.04 0.1098730133816912 0  0.06 0.1098730133816912 0  0.08 0.1098730133816912 0  0.1 0.1098730133816912 0  0.12 0.1098730133816912 0  0.14 0.1098730133816912 0  0.16 0.1098730133816912 0  0.18 0.1098730133816912 0  0.2 0.1098730133816912 0  0.22 0.1098730133816912 0  0.24 0.1098730133816912 0  0.26 0.1098730133816912 0  0.28 0.1098730133816912 0  0.3 0.1098730133816912 0  0.32 0.1098730133816912 0  0.34 0.1098730133816912 0  0.36 0.1098730133816912 0  0.38 0.1098730133816912 0  0.4 0.1098730133816912 0  0.42 0.1098730133816912 0  0.44 0.1098730133816912 0  0.46 0.1098730133816912 0  0.48 0.1098730133816912 0  0.5 0.1098730133816912 0  0.52 0.1098730133816912 0  0.54 0.1098730133816912 0  0.5600000000000001 0.1098730133816912 0  0.58 0.1098730133816912 0  0.6 0.1098730133816912 0  0.62 0.1098730133816912 0  0.64 0.1098730133816912 0  0.66 0.1098730133816912 0  0.68 0.1098730133816912 0  0.7 0.1098730133816912 0  0.72 0.1098730133816912 0  0.74 0.1098730133816912 0  0.76 0.1098730133816912 0  0.78 0.1098730133816912 0  0.8 0.1098730133816912 0  0.82 0.1098730133816912 0  0.84 0.1098730133816912 0  0.86 0.1098730133816912 0  0.88 0.1098730133816912 0  0.9 0.1098730133816912 0  0.92 0.1098730133816912 0  0.9399999999999999 0.1098730133816912 0  0.96 0.1098730133816912 0  0.98 0.1098730133816912 0  1 0.1098730133816912 0  0 0.1603283563168221 0  0.02 0.1603283563168221 0  0.04 0.1603283563168221 0  0.06 0.1603283563168221 0  0.08 0.1603283563168221 0  0.1 0.1603283563168221 0  0.12 0.1603283563168221 0  0.14 0.1603283563168221 0  0.16 0.1603283563168221 0  0.18 0.1603283563168221 0  0.2 0.1603283563168221 0  0.22 0.1603283563168221 0  0.24 0.1603283563168221 0  0.26 0.1603283563168221 0  0.28 0.1603283563168221 0  0.3 0.1603283563168221 0  0.32 0.1603283563168221 0  0.34 0.1603283563168221 0  0.36 0.1603283563168221 0  0.38 0.1603283563168221 0  0.4 0.1603283563168221 0  0.42 0.1603283563168221 0  0.44 0.1603283563168221 0  0.46 0.1603283563168221 0  0.48 0.1603283563168221 0  0.5 0.1603283563168221 0  0.52 0.1603283563168221 0  0.54 0.1603283563168221 0  0.5600000000000001 0.1603283563168221 0  0.58 0.1603283563168221 0 
[...]
<PointData  Vectors="u_paraw"> 
<DataArray  type="Float64"  Name="u_paraw"  NumberOfComponents="3" format="ascii">5.7653771468310899e-06 2.5755249860115806e-05 0.0000000000000000e+00  5.7653771361505397e-06 2.5755249856733095e-05 0.0000000000000000e+00  5.7653771379003658e-06 2.5755249857112566e-05 0.0000000000000000e+00  5.7653771398647962e-06 2.5755249866415017e-05 0.0000000000000000e+00  5.7653771418622405e-06 2.5755249851973444e-05 0.0000000000000000e+00  5.7653771360514919e-06 2.5755249854944175e-05 0.0000000000000000e+00  5.7653771394851153e-06 2.5755249853578043e-05 0.0000000000000000e+00  5.7653771461377604e-06 2.5755249863509372e-05 0.0000000000000000e+00  5.7653771273353704e-06 2.5755249850303790e-05 0.0000000000000000e+00  5.7653771407892318e-06 2.5755249855020032e-05 0.0000000000000000e+00  5.7653771447511048e-06 2.5755249850802523e-05 0.0000000000000000e+00  5.7653771452133239e-06 2.5755249851073573e-05 0.0000000000000000e+00  5.7653771415155753e-06 2.5755249855356135e-05 0.0000000000000000e+00  5.7653771325518373e-06 2.5755249850065228e-05 0.0000000000000000e+00  5.7653771550684827e-06 2.5755249853534749e-05 0.0000000000000000e+00  5.7653771449161830e-06 2.5755249860777145e-05 0.0000000000000000e+00  5.7653771464183934e-06 2.5755249856331917e-05 0.0000000000000000e+00  5.7653771505453446e-06 2.5755249860723010e-05 0.0000000000000000e+00  5.7653771439587300e-06 2.5755249853545517e-05 0.0000000000000000e+00  5.7653771429187387e-06 2.5755249841304874e-05 0.0000000000000000e+00  5.7653771420603327e-06 2.5755249847831846e-05 0.0000000000000000e+00  5.7653771459891900e-06 2.5755249855442871e-05 0.0000000000000000e+00  5.7653771344502346e-06 2.5755249852981732e-05 0.0000000000000000e+00  5.7653771533021480e-06 2.5755249853393803e-05 0.0000000000000000e+00  5.7653771391384510e-06 2.5755249846975252e-05 0.0000000000000000e+00  5.7653771417797005e-06 2.5755249856743913e-05 0.0000000000000000e+00  5.7653771426215979e-06 2.5755249858771371e-05 0.0000000000000000e+00  5.7653771436780978e-06 2.5755249853643095e-05 0.0000000000000000e+00  5.7653771372235458e-06 2.5755249854727436e-05 0.0000000000000000e+00  5.7653771370419598e-06 2.5755249851084378e-05 0.0000000000000000e+00  5.7653771405085988e-06 2.5755249848167874e-05 0.0000000000000000e+00  5.7653771332946885e-06 2.5755249851778267e-05 0.0000000000000000e+00  5.7653771407397083e-06 2.5755249848352189e-05 0.0000000000000000e+00  5.7653771420273170e-06 2.5755249849382181e-05 0.0000000000000000e+00  5.7653771425720744e-06 2.5755249845078037e-05 0.0000000000000000e+00  5.7653771452628473e-06 2.5755249861275878e-05 0.0000000000000000e+00  5.7653771334432581e-06 2.5755249837781217e-05 0.0000000000000000e+00  5.7653771408882788e-06 2.5755249863205758e-05 0.0000000000000000e+00  5.7653771365962493e-06 2.5755249854738139e-05 0.0000000000000000e+00  5.7653771389898806e-06 2.5755249842085500e-05 0.0000000000000000e+00  5.7653771412844657e-06 2.5755249847539176e-05 0.0000000000000000e+00  5.7653771470787056e-06 2.5755249854640561e-05 0.0000000000000000e+00  5.7653771515193054e-06 2.5755249860722935e-05 0.0000000000000000e+00  5.7653771357213354e-06 2.5755249831633791e-05 0.0000000000000000e+00  5.7653771403105057e-06 2.5755249849208708e-05 0.0000000000000000e+00  5.7653771346813442e-06 2.5755249859877258e-05 0.0000000000000000e+00  5.7653771373060850e-06 2.5755249845164773e-05 0.0000000000000000e+00  5.7653771389403579e-06 2.5755249853946672e-05 0.0000000000000000e+00  5.7653771364476789e-06 2.5755249851854162e-05 0.0000000000000000e+00  5.7653771481352047e-06 2.5755249857340225e-05 0.0000000000000000e+00  5.7653771468310882e-06 -5.0092865590991528e-15 0.0000000000000000e+00  3.4682458182253576e-05 -1.5550577087499772e-04 0.0000000000000000e+00  3.4682458183633833e-05 -1.5550577086751672e-04 0.0000000000000000e+00  3.4682458170409081e-05 -1.5550577088130783e-04 0.0000000000000000e+00  3.4682458188480772e-05 -1.5550577086866597e-04 0.0000000000000000e+00  3.4682458174870837e-05 -1.5550577087694928e-04 0.0000000000000000e+00  3.4682458178754808e-05 -1.5550577087053094e-04 0.0000000000000000e+00  3.4682458180520242e-05 -1.5550577086688777e-04 0.0000000000000000e+00  3.4682458185110388e-05 -1.5550577086634592e-04 0.0000000000000000e+00  3.4682458177502948e-05 -1.5550577087308966e-04 0.0000000000000000e+00  3.4682458187902994e-05 -1.5550577086517474e-04 0.0000000000000000e+00  3.4682458169542417e-05 -1.5550577088033213e-04 0.0000000000000000e+00  3.4682458184340015e-05 -1.5550577085986239e-04 0.0000000000000000e+00  3.4682458184725205e-05 -1.5550577089113054e-04 0.0000000000000000e+00  3.4682458185816562e-05 -1.5550577085916826e-04 0.0000000000000000e+00  3.4682458181130126e-05 -1.5550577087946493e-04 0.0000000000000000e+00  3.4682458186940026e-05 -1.5550577088250029e-04 0.0000000000000000e+00  3.4682458182959764e-05 -1.5550577088002830e-04 0.0000000000000000e+00  3.4682458184404213e-05 -1.5550577087673274e-04 0.0000000000000000e+00  3.4682458186041257e-05 -1.5550577087790327e-04 0.0000000000000000e+00  3.4682458176604178e-05 -1.5550577088000662e-04 0.0000000000000000e+00  3.4682458185816562e-05 -1.5550577087575695e-04 0.0000000000000000e+00  3.4682458181290621e-05 -1.5550577089280021e-04 0.0000000000000000e+00  3.4682458186715332e-05 -1.5550577086177034e-04 0.0000000000000000e+00  3.4682458182253583e-05 -1.5550577087525822e-04 0.0000000000000000e+00  3.4682458188031391e-05 -1.5550577088555774e-04 0.0000000000000000e+00  3.4682458195189443e-05 -1.5550577086257265e-04 0.0000000000000000e+00  3.4682458179974563e-05 -1.5550577087315446e-04 0.0000000000000000e+00  3.4682458174004166e-05 -1.5550577087777316e-04 0.0000000000000000e+00  3.4682458186907927e-05 -1.5550577087317701e-04 0.0000000000000000e+00  3.4682458180391852e-05 -1.5550577087311110e-04 0.0000000000000000e+00  3.4682458177791840e-05 -1.5550577088776951e-04 0.0000000000000000e+00  3.4682458172238726e-05 -1.5550577088531921e-04 0.0000000000000000e+00  3.4682458178369618e-05 -1.5550577087868389e-04 0.0000000000000000e+00  3.4682458186009157e-05 -1.5550577088345438e-04 0.0000000000000000e+00  3.4682458185014090e-05 -1.5550577088063633e-04 0.0000000000000000e+00  3.4682458180873332e-05 -1.5550577087666728e-04 0.0000000000000000e+00  3.4682458176572079e-05 -1.5550577087853211e-04 0.0000000000000000e+00  3.4682458182285682e-05 -1.5550577087486750e-04 0.0000000000000000e+00  3.4682458179525181e-05 -1.5550577088200155e-04 0.0000000000000000e+00  3.4682458183409146e-05 -1.5550577087235215e-04 0.0000000000000000e+00  3.4682458183954825e-05 -1.5550577087211450e-04 0.0000000000000000e+00  3.4682458189411641e-05 -1.5550577088139440e-04 0.0000000000000000e+00  3.4682458191979554e-05 -1.5550577087746959e-04 0.0000000000000000e+00  3.4682458169381928e-05 -1.5550577088135103e-04 0.0000000000000000e+00  3.4682458186715332e-05 -1.5550577088575289e-04 0.0000000000000000e+00  3.4682458189186947e-05 -1.5550577086860081e-04 0.0000000000000000e+00  3.4682458177888138e-05 -1.5550577087009788e-04 0.0000000000000000e+00  3.4682458188833863e-05 -1.5550577086853576e-04 0.0000000000000000e+00  3.4682458181226423e-05 -1.5550577086419895e-04 0.0000000000000000e+00  3.4682458182767169e-05 -1.5550577087675401e-04 0.0000000000000000e+00  3.4682458182253583e-05 3.0525574913632085e-05 0.0000000000000000e+00  -1.1392884050872127e-04 -9.2131843570930627e-04 0.0000000000000000e+00  -1.1392884050986808e-04 -9.2131843571516096e-04 0.0000000000000000e+00  -1.1392884052350914e-04 -9.2131843571143142e-04 0.0000000000000000e+00  -1.1392884051276530e-04 -9.2131843572617624e-04 0.0000000000000000e+00  -1.1392884051517964e-04 -9.2131843570813512e-04 0.0000000000000000e+00  -1.1392884051837865e-04 -9.2131843572001862e-04 0.0000000000000000e+00  -1.1392884051192027e-04 -9.2131843571442284e-04 0.0000000000000000e+00  -1.1392884050775553e-04 -9.2131843570869955e-04 0.0000000000000000e+00  -1.1392884052278483e-04 -9.2131843571789359e-04 0.0000000000000000e+00  -1.1392884051270494e-04 -9.2131843572045100e-04 0.0000000000000000e+00  -1.1392884052091372e-04 -9.2131843572179671e-04 0.0000000000000000e+00  -1.1392884050908342e-04 -9.2131843570757198e-04 0.0000000000000000e+00  -1.1392884052447487e-04 -9.2131843572322656e-04 0.0000000000000000e+00  -1.1392884050678979e-04 -9.2131843571784892e-04 0.0000000000000000e+00  -1.1392884050902307e-04 -9.2131843571607332e-04 0.0000000000000000e+00  -1.1392884050968701e-04 -9.2131843572647917e-04 0.0000000000000000e+00  -1.1392884050624656e-04 -9.2131843571277485e-04 0.0000000000000000e+00  -1.1392884050884199e-04 -9.2131843570978495e-04 0.0000000000000000e+00  -1.1392884051433463e-04 -9.2131843571941017e-04 0.0000000000000000e+00  -1.1392884051348960e-04 -9.2131843572040763e-04 0.0000000000000000e+00  -1.1392884050914378e-04 -9.2131843570883085e-04 0.0000000000000000e+00  -1.1392884051940475e-04 -9.2131843572313982e-04 0.0000000000000000e+00  -1.1392884050751410e-04 -9.2131843571659124e-04 0.0000000000000000e+00  -1.1392884051270494e-04 -9.2131843571772131e-04 0.0000000000000000e+00  -1.1392884051524001e-04 -9.2131843571719840e-04 0.0000000000000000e+00  -1.1392884051228243e-04 -9.2131843572396382e-04 0.0000000000000000e+00  -1.1392884050938522e-04 -9.2131843572001732e-04 0.0000000000000000e+00  -1.1392884050540155e-04 -9.2131843570683342e-04 0.0000000000000000e+00  -1.1392884052308664e-04 -9.2131843572457617e-04 0.0000000000000000e+00  -1.1392884052894142e-04 -9.2131843573072924e-04 0.0000000000000000e+00  -1.1392884052121551e-04 -9.2131843572010406e-04 0.0000000000000000e+00  -1.1392884051608502e-04 -9.2131843572357350e-04 0.0000000000000000e+00  -1.1392884050709159e-04 -9.2131843570410123e-04 0.0000000000000000e+00  -1.1392884051807686e-04 -9.2131843570839467e-04 0.0000000000000000e+00  -1.1392884051656790e-04 -9.2131843571607603e-04 0.0000000000000000e+00  -1.1392884051403283e-04 -9.2131843571741524e-04 0.0000000000000000e+00  -1.1392884050980772e-04 -9.2131843571403253e-04 0.0000000000000000e+00  -1.1392884051185992e-04 -9.2131843571368558e-04 0.0000000000000000e+00  -1.1392884050491867e-04 -9.2131843571611419e-04 0.0000000000000000e+00  -1.1392884050715194e-04 -9.2131843570635637e-04 0.0000000000000000e+00  -1.1392884051765435e-04 -9.2131843571629287e-04 0.0000000000000000e+00  -1.1392884051705076e-04 -9.2131843572201225e-04 0.0000000000000000e+00  -1.1392884051185992e-04 -9.2131843572994861e-04 0.0000000000000000e+00  -1.1392884051807686e-04 -9.2131843571702492e-04 0.0000000000000000e+00  -1.1392884050890234e-04 -9.2131843571797902e-04 0.0000000000000000e+00  -1.1392884051143741e-04 -9.2131843571880302e-04 0.0000000000000000e+00  -1.1392884051638682e-04 -9.2131843571516530e-04 0.0000000000000000e+00  -1.1392884051765435e-04 -9.2131843571446621e-04 0.0000000000000000e+00  -1.1392884050986808e-04 -9.2131843570397113e-04 0.0000000000000000e+00  -1.1392884050817804e-04 -9.2131843570809110e-04 0.0000000000000000e+00  -1.1392884050872127e-04 -4.8062274225938172e-04 0.0000000000000000e+00  2.0018652494752180e-04 4.4841121876063386e-04 0.0000000000000000e+00  2.0018652494157416e-04 4.4841121874241927e-04 0.0000000000000000e+00  2.0018652493724860e-04 4.4841121875117973e-04 0.0000000000000000e+00  2.0018652494287182e-04 4.4841121874805701e-04 0.0000000000000000e+00  2.0018652495876828e-04 4.4841121875404180e-04 0.0000000000000000e+00  2.0018652496017408e-04 4.4841121875482275e-04 0.0000000000000000e+00  2.0018652495076597e-04 4.4841121876436308e-04 0.0000000000000000e+00  2.0018652494114156e-04 4.4841121874684303e-04 0.0000000000000000e+00  2.0018652494146598e-04 4.4841121874588893e-04 0.0000000000000000e+00  2.0018652494817064e-04 4.4841121875456190e-04 0.0000000000000000e+00  2.0018652495022525e-04 4.4841121875291456e-04 0.0000000000000000e+00  2.0018652494860318e-04 4.4841121872784780e-04 0.0000000000000000e+00  2.0018652494503461e-04 4.4841121875638336e-04 0.0000000000000000e+00  2.0018652494957644e-04 4.4841121875881197e-04 0.0000000000000000e+00  2.0018652493962764e-04 4.4841121873955784e-04 0.0000000000000000e+00  2.0018652495336134e-04 4.4841121874536786e-04 0.0000000000000000e+00  2.0018652494589972e-04 4.4841121873513299e-04 0.0000000000000000e+00  2.0018652495044155e-04 4.4841121874484875e-04 0.0000000000000000e+00  2.0018652494665668e-04 4.4841121874875057e-04 0.0000000000000000e+00  2.0018652494817064e-04 4.4841121875222002e-04 0.0000000000000000e+00  2.0018652494471016e-04 4.4841121874346097e-04 0.0000000000000000e+00  2.0018652494362881e-04 4.4841121874519439e-04 0.0000000000000000e+00  2.0018652494773809e-04 4.4841121874788321e-04 0.0000000000000000e+00  2.0018652494427762e-04 4.4841121875213458e-04 0.0000000000000000e+00  2.0018652495260435e-04 4.4841121874580154e-04 0.0000000000000000e+00  2.0018652494914390e-04 4.4841121875438842e-04 0.0000000000000000e+00  2.0018652494535903e-04 4.4841121875777113e-04 0.0000000000000000e+00  2.0018652494168228e-04 4.4841121873973001e-04 0.0000000000000000e+00  2.0018652494341251e-04 4.4841121873608964e-04 0.0000000000000000e+00  2.0018652494049275e-04 4.4841121874467397e-04 0.0000000000000000e+00  2.0018652494211485e-04 4.4841121874805668e-04 0.0000000000000000e+00  2.0018652494503461e-04 4.4841121874328619e-04 0.0000000000000000e+00  2.0018652494957644e-04 4.4841121874068411e-04 0.0000000000000000e+00  2.0018652494579157e-04 4.4841121874207189e-04 0.0000000000000000e+00  2.0018652495022528e-04 4.4841121875161541e-04 0.0000000000000000e+00  2.0018652493130094e-04 4.4841121873348501e-04 0.0000000000000000e+00  2.0018652494124974e-04 4.4841121875117919e-04 0.0000000000000000e+00  2.0018652493757299e-04 4.4841121872663285e-04 0.0000000000000000e+00  2.0018652495628109e-04 4.4841121876479676e-04 0.0000000000000000e+00  2.0018652495054970e-04 4.4841121873417890e-04 0.0000000000000000e+00  2.0018652495390203e-04 4.4841121875456444e-04 0.0000000000000000e+00  2.0018652493476139e-04 4.4841121873279112e-04 0.0000000000000000e+00  2.0018652495357761e-04 4.4841121874129126e-04 0.0000000000000000e+00  2.0018652495465899e-04 4.4841121875742419e-04 0.0000000000000000e+00  2.0018652494546715e-04 4.4841121873478605e-04 0.0000000000000000e+00  2.0018652495660551e-04 4.4841121874458724e-04 0.0000000000000000e+00  2.0018652495887643e-04 4.4841121875517160e-04 0.0000000000000000e+00  2.0018652495184738e-04 4.4841121875829155e-04 0.0000000000000000e+00  2.0018652494860321e-04 4.4841121874484744e-04 0.0000000000000000e+00  2.0018652494654856e-04 4.4841121875412822e-04 0.0000000000000000e+00  2.0018652494752180e-04 -8.7204090472085773e-04 0.0000000000000000e+00  -3.6662282634408500e-04 -9.8750416831815450e-04 0.0000000000000000e+00  -3.6662282634028292e-04 -9.8750416831138907e-04 0.0000000000000000e+00  -3.6662282634426188e-04 -9.8750416830531798e-04 0.0000000000000000e+00  -3.6662282634603027e-04 -9.8750416830384281e-04 0.0000000000000000e+00  -3.6662282633329773e-04 -9.8750416828319960e-04 0.0000000000000000e+00  -3.6662282634877130e-04 -9.8750416829083325e-04 0.0000000000000000e+00  -3.6662282635071657e-04 -9.8750416829516876e-04 0.0000000000000000e+00  -3.6662282634647236e-04 -9.8750416828441477e-04 0.0000000000000000e+00  -3.6662282636512909e-04 -9.8750416831251729e-04 0.0000000000000000e+00  -3.6662282634832922e-04 -9.8750416831373030e-04 0.0000000000000000e+00  -3.6662282635522599e-04 -9.8750416829803235e-04 0.0000000000000000e+00  -3.6662282635619863e-04 -9.8750416829638437e-04 0.0000000000000000e+00  -3.6662282634841763e-04 -9.8750416829612286e-04 0.0000000000000000e+00  -3.6662282634735658e-04 -9.8750416830956696e-04 0.0000000000000000e+00  -3.6662282634452713e-04 -9.8750416829404379e-04 0.0000000000000000e+00  -3.6662282634116714e-04 -9.8750416828796966e-04 0.0000000000000000e+00  -3.6662282634815238e-04 -9.8750416830444953e-04 0.0000000000000000e+00  -3.6662282633877978e-04 -9.8750416829005393e-04 0.0000000000000000e+00  -3.6662282634037133e-04 -9.8750416829195952e-04 0.0000000000000000e+00  -3.6662282634735658e-04 -9.8750416829950557e-04 0.0000000000000000e+00  -3.6662282635036285e-04 -9.8750416830054900e-04 0.0000000000000000e+00  -3.6662282634178611e-04 -9.8750416829265341e-04 0.0000000000000000e+00  -3.6662282634912497e-04 -9.8750416831208231e-04 0.0000000000000000e+00  -3.6662282635443018e-04 -9.8750416831494721e-04 0.0000000000000000e+00  -3.6662282634700291e-04 -9.8750416829161258e-04 0.0000000000000000e+00  -3.6662282634364291e-04 -9.8750416831320988e-04 0.0000000000000000e+00  -3.6662282634364291e-04 -9.8750416829976578e-04 0.0000000000000000e+00  -3.6662282633205984e-04 -9.8750416829803105e-04 0.0000000000000000e+00  -3.6662282633214826e-04 -9.8750416828632709e-04 0.0000000000000000e+00  -3.6662282635195446e-04 -9.8750416830922002e-04 0.0000000000000000e+00  -3.6662282634868288e-04 -9.8750416831320988e-04 0.0000000000000000e+00  -3.6662282633984083e-04 -9.8750416830462300e-04 0.0000000000000000e+00  -3.6662282633842611e-04 -9.8750416830418932e-04 0.0000000000000000e+00  -3.6662282634408500e-04 -9.8750416830609752e-04 0.0000000000000000e+00  -3.6662282633497770e-04 -9.8750416830289370e-04 0.0000000000000000e+00  -3.6662282634187453e-04 -9.8750416829360751e-04 0.0000000000000000e+00  -3.6662282634682602e-04 -9.8750416830375564e-04 0.0000000000000000e+00  -3.6662282634947869e-04 -9.8750416831381704e-04 0.0000000000000000e+00  -3.6662282633568509e-04 -9.8750416828935744e-04 0.0000000000000000e+00  -3.6662282635213130e-04 -9.8750416830757203e-04 0.0000000000000000e+00  -3.6662282633259034e-04 -9.8750416829968446e-04 0.0000000000000000e+00  -3.6662282634629552e-04 -9.8750416829933210e-04 0.0000000000000000e+00  -3.6662282634010608e-04 -9.8750416831667933e-04 0.0000000000000000e+00  -3.6662282633409353e-04 -9.8750416829499529e-04 0.0000000000000000e+00  -3.6662282634240503e-04 -9.8750416830505668e-04 0.0000000000000000e+00  -3.6662282633002615e-04 -9.8750416830028619e-04 0.0000000000000000e+00  -3.6662282634134397e-04 -9.8750416830688356e-04 0.0000000000000000e+00  -3.6662282634063664e-04 -9.8750416831355683e-04 0.0000000000000000e+00  -3.6662282634514605e-04 -9.8750416831008738e-04 0.0000000000000000e+00  -3.6662282633860295e-04 -9.8750416828510736e-04 0.0000000000000000e+00  -3.6662282634408500e-04 8.0480589704659815e-04 0.0000000000000000e+00  6.2665764860020704e-04 2.3547037551996733e-03 0.0000000000000000e+00  6.2665764859853477e-04 2.3547037552140715e-03 0.0000000000000000e+00  6.2665764858181247e-04 2.3547037551606424e-03 0.0000000000000000e+00  6.2665764858212602e-04 2.3547037551864890e-03 0.0000000000000000e+00  6.2665764857418294e-04 2.3547037551840603e-03 0.0000000000000000e+00  6.2665764856644878e-04 2.3547037551708782e-03 0.0000000000000000e+00  6.2665764857407831e-04 2.3547037551595986e-03 0.0000000000000000e+00  6.2665764858442529e-04 2.3547037551620311e-03 0.0000000000000000e+00  6.2665764858881490e-04 2.3547037551512758e-03 0.0000000000000000e+00  6.2665764860271524e-04 2.3547037551823235e-03 0.0000000000000000e+00  6.2665764859278644e-04 2.3547037551913479e-03 0.0000000000000000e+00  6.2665764859529485e-04 2.3547037551883989e-03 0.0000000000000000e+00  6.2665764859937080e-04 2.3547037551823235e-03 0.0000000000000000e+00  6.2665764859477216e-04 2.3547037551674048e-03 0.0000000000000000e+00  6.2665764859320451e-04 2.3547037551805957e-03 0.0000000000000000e+00  6.2665764859999790e-04 2.3547037551831908e-03 0.0000000000000000e+00  6.2665764858254398e-04 2.3547037551795479e-03 0.0000000000000000e+00  6.2665764857919954e-04 2.3547037551646362e-03 0.0000000000000000e+00  6.2665764857909503e-04 2.3547037551561291e-03 0.0000000000000000e+00  6.2665764858181236e-04 2.3547037551837112e-03 0.0000000000000000e+00  6.2665764858547035e-04 2.3547037551875346e-03 0.0000000000000000e+00  6.2665764857899051e-04 2.3547037551606394e-03 0.0000000000000000e+00  6.2665764857993116e-04 2.3547037551720886e-03 0.0000000000000000e+00  6.2665764857982665e-04 2.3547037551799018e-03 0.0000000000000000e+00  6.2665764856937515e-04 2.3547037551582108e-03 0.0000000000000000e+00  6.2665764858442529e-04 2.354703