<?xml version="1.0"?>
<VTKFile type="UnstructuredGrid"  version="0.1"  >
<UnstructuredGrid>
<Piece  NumberOfPoints="2601" NumberOfCells="5000">
<Points>
<DataArray  type="Float64"  NumberOfComponents="3"  format="ascii">0 0 0  0.02 0 0  0.04 0 0  0.06 0 0  0.08 0 0  0.1 0 0  0.12 0 0  0.14 0 0  0.16 0 0  0.18 0 0  0.2 0 0  0.22 0 0  0.24 0 0  0.26 0 0  0.28 0 0  0.3 0 0  0.32 0 0  0.34 0 0  0.36 0 0  0.38 0 0  0.4 0 0  0.42 0 0  0.44 0 0  0.46 0 0  0.48 0 0  0.5 0 0  0.52 0 0  0.54 0 0  0.5600000000000001 0 0  0.58 0 0  0.6 0 0  0.62 0 0  0.64 0 0  0.66 0 0  0.68 0 0  0.7 0 0  0.72 0 0  0.74 0 0  0.76 0 0  0.78 0 0  0.8 0 0  0.82 0 0  0.84 0 0  0.86 0 0  0.88 0 0  0.9 0 0  0.92 0 0  0.9399999999999999 0 0  0.96 0 0  0.98 0 0  1 0 0  0 0.01313563088723984 0  0.02 0.01313563088723984 0  0.04 0.01313563088723984 0  0.06 0.01313563088723984 0  0.08 0.01313563088723984 0  0.1 0.01313563088723984 0  0.12 0.01313563088723984 0  0.14 0.01313563088723984 0  0.16 0.01313563088723984 0  0.18 0.01313563088723984 0  0.2 0.01313563088723984 0  0.22 0.01313563088723984 0  0.24 0.01313563088723984 0  0.26 0.01313563088723984 0  0.28 0.01313563088723984 0  0.3 0.01313563088723984 0  0.32 0.01313563088723984 0  0.34 0.01313563088723984 0  0.36 0.01313563088723984 0  0.38 0.01313563088723984 0  0.4 0.01313563088723984 0  0.42 0.01313563088723984 0  0.44 0.01313563088723984 0  0.46 0.01313563088723984 0  0.48 0.01313563088723984 0  0.5 0.01313563088723984 0  0.52 0.01313563088723984 0  0.54 0.01313563088723984 0  0.5600000000000001 0.01313563088723984 0  0.58 0.01313563088723984 0  0.6 0.01313563088723984 0  0.62 0.01313563088723984 0  0.64 0.01313563088723984 0  0.66 0.01313563088723984 0  0.68 0.01313563088723984 0  0.7 0.01313563088723984 0  0.72 0.01313563088723984 0  0.74 0.01313563088723984 0  0.76 0.01313563088723984 0  0.78 0.01313563088723984 0  0.8 0.01313563088723984 0  0.82 0.01313563088723984 0  0.84 0.01313563088723984 0  0.86 0.01313563088723984 0  0.88 0.01313563088723984 0  0.9 0.01313563088723984 0  0.92 0.01313563088723984 0  0.9399999999999999 0.01313563088723984 0  0.96 0.01313563088723984 0  0.98 0.01313563088723984 0  1 0.01313563088723984 0  0 0.02664639863733726 0  0.02 0.02664639863733726 0  0.04 0.02664639863733726 0  0.06 0.02664639863733726 0  0.08 0.02664639863733726 0  0.1 0.02664639863733726 0  0.12 0.02664639863733726 0  0.14 0.02664639863733726 0  0.16 0.02664639863733726 0  0.18 0.02664639863733726 0  0.2 0.02664639863733726 0  0.22 0.02664639863733726 0  0.24 0.02664639863733726 0  0.26 0.02664639863733726 0  0.28 0.02664639863733726 0  0.3 0.02664639863733726 0  0.32 0.02664639863733726 0  0.34 0.02664639863733726 0  0.36 0.02664639863733726 0  0.38 0.02664639863733726 0  0.4 0.02664639863733726 0  0.42 0.02664639863733726 0  0.44 0.02664639863733726 0  0.46 0.02664639863733726 0  0.48 0.02664639863733726 0  0.5 0.02664639863733726 0  0.52 0.02664639863733726 0  0.54 0.02664639863733726 0  0.5600000000000001 0.02664639863733726 0  0.58 0.02664639863733726 0  0.6 0.02664639863733726 0  0.62 0.02664639863733726 0  0.64 0.02664639863733726 0  0.66 0.02664639863733726 0  0.68 0.02664639863733726 0  0.7 0.02664639863733726 0  0.72 0.02664639863733726 0  0.74 0.02664639863733726 0  0.76 0.02664639863733726 0  0.78 0.02664639863733726 0  0.8 0.02664639863733726 0  0.82 0.02664639863733726 0  0.84 0.02664639863733726 0  0.86 0.02664639863733726 0  0.88 0.02664639863733726 0  0.9 0.02664639863733726 0  0.92 0.02664639863733726 0  0.9399999999999999 0.02664639863733726 0  0.96 0.02664639863733726 0  0.98 0.02664639863733726 0  1 0.02664639863733726 0  0 0.04101652939099896 0  0.02 0.04101652939099896 0  0.04 0.04101652939099896 0  0.06 0.04101652939099896 0  0.08 0.04101652939099896 0  0.1 0.04101652939099896 0  0.12 0.04101652939099896 0  0.14 0.04101652939099896 0  0.16 0.04101652939099896 0  0.18 0.04101652939099896 0  0.2 0.04101652939099896 0  0.22 0.04101652939099896 0  0.24 0.04101652939099896 0  0.26 0.04101652939099896 0  0.28 0.04101652939099896 0  0.3 0.04101652939099896 0  0.32 0.04101652939099896 0  0.34 0.04101652939099896 0  0.36 0.04101652939099896 0  0.38 0.04101652939099896 0  0.4 0.04101652939099896 0  0.42 0.04101652939099896 0  0.44 0.04101652939099896 0  0.46 0.04101652939099896 0  0.48 0.04101652939099896 0  0.5 0.04101652939099896 0  0.52 0.04101652939099896 0  0.54 0.04101652939099896 0  0.5600000000000001 0.04101652939099896 0  0.58 0.04101652939099896 0  0.6 0.04101652939099896 0  0.62 0.04101652939099896 0  0.64 0.04101652939099896 0  0.66 0.04101652939099896 0  0.68 0.04101652939099896 0  0.7 0.04101652939099896 0  0.72 0.04101652939099896 0  0.74 0.04101652939099896 0  0.76 0.04101652939099896 0  0.78 0.04101652939099896 0  0.8 0.04101652939099896 0  0.82 0.04101652939099896 0  0.84 0.04101652939099896 0  0.86 0.04101652939099896 0  0.88 0.04101652939099896 0  0.9 0.04101652939099896 0  0.92 0.04101652939099896 0  0.9399999999999999 0.04101652939099896 0  0.96 0.04101652939099896 0  0.98 0.04101652939099896 0  1 0.04101652939099896 0  0 0.05705811164099547 0  0.02 0.05705811164099547 0  0.04 0.05705811164099547 0  0.06 0.05705811164099547 0  0.08 0.05705811164099547 0  0.1 0.05705811164099547 0  0.12 0.05705811164099547 0  0.14 0.05705811164099547 0  0.16 0.05705811164099547 0  0.18 0.05705811164099547 0  0.2 0.05705811164099547 0  0.22 0.05705811164099547 0  0.24 0.05705811164099547 0  0.26 0.05705811164099547 0  0.28 0.05705811164099547 0  0.3 0.05705811164099547 0  0.32 0.05705811164099547 0  0.34 0.05705811164099547 0  0.36 0.05705811164099547 0  0.38 0.05705811164099547 0  0.4 0.05705811164099547 0  0.42 0.05705811164099547 0  0.44 0.05705811164099547 0  0.46 0.05705811164099547 0  0.48 0.05705811164099547 0  0.5 0.05705811164099547 0  0.52 0.05705811164099547 0  0.54 0.05705811164099547 0  0.5600000000000001 0.05705811164099547 0  0.58 0.05705811164099547 0  0.6 0.05705811164099547 0  0.62 0.05705811164099547 0  0.64 0.05705811164099547 0  0.66 0.05705811164099547 0  0.68 0.05705811164099547 0  0.7 0.05705811164099547 0  0.72 0.05705811164099547 0  0.74 0.05705811164099547 0  0.76 0.05705811164099547 0  0.78 0.05705811164099547 0  0.8 0.05705811164099547 0  0.82 0.05705811164099547 0  0.84 0.05705811164099547 0  0.86 0.05705811164099547 0  0.88 0.05705811164099547 0  0.9 0.05705811164099547 0  0.92 0.05705811164099547 0  0.9399999999999999 0.05705811164099547 0  0.96 0.05705811164099547 0  0.98 0.05705811164099547 0  1 0.05705811164099547 0  0 0.07667714377545 0  0.02 0.07667714377545 0  0.04 0.07667714377545 0  0.06 0.07667714377545 0  0.08 0.07667714377545 0  0.1 0.07667714377545 0  0.12 0.07667714377545 0  0.14 0.07667714377545 0  0.16 0.07667714377545 0  0.18 0.07667714377545 0  0.2 0.07667714377545 0  0.22 0.07667714377545 0  0.24 0.07667714377545 0  0.26 0.07667714377545 0  0.28 0.07667714377545 0  0.3 0.07667714377545 0  0.32 0.07667714377545 0  0.34 0.07667714377545 0  0.36 0.07667714377545 0  0.38 0.07667714377545 0  0.4 0.07667714377545 0  0.42 0.07667714377545 0  0.44 0.07667714377545 0  0.46 0.07667714377545 0  0.48 0.07667714377545 0  0.5 0.07667714377545 0  0.52 0.07667714377545 0  0.54 0.07667714377545 0  0.5600000000000001 0.07667714377545 0  0.58 0.07667714377545 0  0.6 0.07667714377545 0  0.62 0.07667714377545 0  0.64 0.07667714377545 0  0.66 0.07667714377545 0  0.68 0.07667714377545 0  0.7 0.07667714377545 0  0.72 0.07667714377545 0  0.74 0.07667714377545 0  0.76 0.07667714377545 0  0.78 0.07667714377545 0  0.8 0.07667714377545 0  0.82 0.07667714377545 0  0.84 0.07667714377545 0  0.86 0.07667714377545 0  0.88 0.07667714377545 0  0.9 0.07667714377545 0  0.92 0.07667714377545 0  0.9399999999999999 0.07667714377545 0  0.96 0.07667714377545 0  0.98 0.07667714377545 0  1 0.07667714377545 0  0 0.1098730133816912 0  0.02 0.1098730133816912 0  0.04 0.1098730133816912 0  0.06 0.1098730133816912 0  0.08 0.1098730133816912 0  0.1 0.1098730133816912 0  0.12 0.1098730133816912 0  0.14 0.1098730133816912 0  0.16 0.1098730133816912 0  0.18 0.1098730133816912 0  0.2 0.1098730133816912 0  0.22 0.1098730133816912 0  0.24 0.1098730133816912 0  0.26 0.1098730133816912 0  0.28 0.1098730133816912 0  0.3 0.1098730133816912 0  0.32 0.1098730133816912 0  0.34 0.1098730133816912 0  0.36 0.1098730133816912 0  0.38 0.1098730133816912 0  0.4 0.1098730133816912 0  0.42 0.1098730133816912 0  0.44 0.1098730133816912 0  0.46 0.1098730133816912 0  0.48 0.1098730133816912 0  0.5 0.1098730133816912 0  0.52 0.1098730133816912 0  0.54 0.1098730133816912 0  0.5600000000000001 0.1098730133816912 0  0.58 0.1098730133816912 0  0.6 0.1098730133816912 0  0.62 0.1098730133816912 0  0.64 0.1098730133816912 0  0.66 0.1098730133816912 0  0.68 0.1098730133816912 0  0.7 0.1098730133816912 0  0.72 0.1098730133816912 0  0.74 0.1098730133816912 0  0.76 0.1098730133816912 0  0.78 0.1098730133816912 0  0.8 0.1098730133816912 0  0.82 0.1098730133816912 0  0.84 0.1098730133816912 0  0.86 0.1098730133816912 0  0.88 0.1098730133816912 0  0.9 0.1098730133816912 0  0.92 0.1098730133816912 0  0.9399999999999999 0.1098730133816912 0  0.96 0.1098730133816912 0  0.98 0.1098730133816912 0  1 0.1098730133816912 0  0 0.1603283563168221 0  0.02 0.1603283563168221 0  0.04 0.1603283563168221 0  0.06 0.1603283563168221 0  0.08 0.1603283563168221 0  0.1 0.1603283563168221 0  0.12 0.1603283563168221 0  0.14 0.1603283563168221 0  0.16 0.1603283563168221 0  0.18 0.1603283563168221 0  0.2 0.1603283563168221 0  0.22 0.1603283563168221 0  0.24 0.1603283563168221 0  0.26 0.1603283563168221 0  0.28 0.1603283563168221 0  0.3 0.1603283563168221 0  0.32 0.1603283563168221 0  0.34 0.1603283563168221 0  0.36 0.1603283563168221 0  0.38 0.1603283563168221 0  0.4 0.1603283563168221 0  0.42 0.1603283563168221 0  0.44 0.1603283563168221 0  0.46 0.1603283563168221 0  0.48 0.1603283563168221 0  0.5 0.1603283563168221 0  0.52 0.1603283563168221 0  0.54 0.1603283563168221 0  0.5600000000000001 0.1603283563168221 0  0.58 0.1603283563168221 0 
[...]
<PointData  Vectors="u_paraw"> 
<DataArray  type="Float64"  Name="u_paraw"  NumberOfComponents="3" format="ascii">9.7591378878810088e-05 1.0326817478256050e-04 0.0000000000000000e+00  9.7591378876994226e-05 1.0326817478118356e-04 0.0000000000000000e+00  9.7591378876548497e-05 1.0326817478227860e-04 0.0000000000000000e+00  9.7591378878397387e-05 1.0326817477987165e-04 0.0000000000000000e+00  9.7591378876845649e-05 1.0326817478404583e-04 0.0000000000000000e+00  9.7591378881055119e-05 1.0326817478224612e-04 0.0000000000000000e+00  9.7591378878314825e-05 1.0326817478114008e-04 0.0000000000000000e+00  9.7591378881269723e-05 1.0326817478439284e-04 0.0000000000000000e+00  9.7591378879420846e-05 1.0326817478288580e-04 0.0000000000000000e+00  9.7591378878199276e-05 1.0326817477850547e-04 0.0000000000000000e+00  9.7591378879916083e-05 1.0326817478394832e-04 0.0000000000000000e+00  9.7591378880724965e-05 1.0326817478005603e-04 0.0000000000000000e+00  9.7591378875739614e-05 1.0326817477582749e-04 0.0000000000000000e+00  9.7591378873956766e-05 1.0326817477464571e-04 0.0000000000000000e+00  9.7591378879222763e-05 1.0326817478562899e-04 0.0000000000000000e+00  9.7591378879222763e-05 1.0326817477944873e-04 0.0000000000000000e+00  9.7591378876168809e-05 1.0326817478170387e-04 0.0000000000000000e+00  9.7591378876152302e-05 1.0326817477823473e-04 0.0000000000000000e+00  9.7591378877704039e-05 1.0326817477871147e-04 0.0000000000000000e+00  9.7591378873147883e-05 1.0326817477859221e-04 0.0000000000000000e+00  9.7591378876432934e-05 1.0326817478257154e-04 0.0000000000000000e+00  9.7591378877654518e-05 1.0326817477889578e-04 0.0000000000000000e+00  9.7591378875888177e-05 1.0326817477897168e-04 0.0000000000000000e+00  9.7591378878446894e-05 1.0326817478110787e-04 0.0000000000000000e+00  9.7591378875425968e-05 1.0326817477943789e-04 0.0000000000000000e+00  9.7591378877918644e-05 1.0326817477956799e-04 0.0000000000000000e+00  9.7591378877505942e-05 1.0326817477995830e-04 0.0000000000000000e+00  9.7591378878562443e-05 1.0326817478106419e-04 0.0000000000000000e+00  9.7591378878479908e-05 1.0326817477992636e-04 0.0000000000000000e+00  9.7591378875954218e-05 1.0326817477829947e-04 0.0000000000000000e+00  9.7591378873180897e-05 1.0326817478050040e-04 0.0000000000000000e+00  9.7591378878595457e-05 1.0326817478138945e-04 0.0000000000000000e+00  9.7591378878727526e-05 1.0326817477980651e-04 0.0000000000000000e+00  9.7591378877043733e-05 1.0326817477864642e-04 0.0000000000000000e+00  9.7591378877010719e-05 1.0326817477828921e-04 0.0000000000000000e+00  9.7591378878876089e-05 1.0326817478284228e-04 0.0000000000000000e+00  9.7591378876036753e-05 1.0326817477844042e-04 0.0000000000000000e+00  9.7591378875376433e-05 1.0326817477863558e-04 0.0000000000000000e+00  9.7591378875442475e-05 1.0326817477757306e-04 0.0000000000000000e+00  9.7591378876862143e-05 1.0326817477853800e-04 0.0000000000000000e+00  9.7591378873940259e-05 1.0326817477643523e-04 0.0000000000000000e+00  9.7591378877456421e-05 1.0326817478044619e-04 0.0000000000000000e+00  9.7591378876449441e-05 1.0326817477962220e-04 0.0000000000000000e+00  9.7591378876317385e-05 1.0326817477773569e-04 0.0000000000000000e+00  9.7591378877142775e-05 1.0326817478167134e-04 0.0000000000000000e+00  9.7591378876548497e-05 1.0326817478290733e-04 0.0000000000000000e+00  9.7591378878694512e-05 1.0326817478116235e-04 0.0000000000000000e+00  9.7591378878562443e-05 1.0326817478022935e-04 0.0000000000000000e+00  9.7591378877571984e-05 1.0326817478574794e-04 0.0000000000000000e+00  9.7591378878496415e-05 1.0326817478043535e-04 0.0000000000000000e+00  9.7591378878810061e-05 4.5469883594942613e-16 0.0000000000000000e+00  3.6088759921528183e-04 3.9163019098025718e-04 0.0000000000000000e+00  3.6088759921325958e-04 3.9163019098049570e-04 0.0000000000000000e+00  3.6088759921329167e-04 3.9163019098071265e-04 0.0000000000000000e+00  3.6088759921197572e-04 3.9163019098268579e-04 0.0000000000000000e+00  3.6088759921772140e-04 3.9163019098381336e-04 0.0000000000000000e+00  3.6088759921383746e-04 3.9163019098535320e-04 0.0000000000000000e+00  3.6088759921720781e-04 3.9163019098064722e-04 0.0000000000000000e+00  3.6088759921534607e-04 3.9163019097618085e-04 0.0000000000000000e+00  3.6088759921386955e-04 3.9163019097570380e-04 0.0000000000000000e+00  3.6088759921521770e-04 3.9163019097524789e-04 0.0000000000000000e+00  3.6088759921268186e-04 3.9163019097483644e-04 0.0000000000000000e+00  3.6088759921274610e-04 3.9163019097869620e-04 0.0000000000000000e+00  3.6088759921765721e-04 3.9163019097897755e-04 0.0000000000000000e+00  3.6088759921342015e-04 3.9163019097769819e-04 0.0000000000000000e+00  3.6088759921306708e-04 3.9163019097689696e-04 0.0000000000000000e+00  3.6088759921463993e-04 3.9163019098194826e-04 0.0000000000000000e+00  3.6088759921483249e-04 3.9163019097615862e-04 0.0000000000000000e+00  3.6088759921255349e-04 3.9163019097481530e-04 0.0000000000000000e+00  3.6088759921637325e-04 3.9163019097958470e-04 0.0000000000000000e+00  3.6088759921537817e-04 3.9163019097960639e-04 0.0000000000000000e+00  3.6088759921165474e-04 3.9163019097600792e-04 0.0000000000000000e+00  3.6088759921062757e-04 3.9163019097635378e-04 0.0000000000000000e+00  3.6088759921229670e-04 3.9163019097477084e-04 0.0000000000000000e+00  3.6088759920953621e-04 3.9163019097290710e-04 0.0000000000000000e+00  3.6088759921110901e-04 3.9163019097451064e-04 0.0000000000000000e+00  3.6088759921316336e-04 3.9163019097526958e-04 0.0000000000000000e+00  3.6088759921313126e-04 3.9163019097787166e-04 0.0000000000000000e+00  3.6088759921634115e-04 3.9163019097568157e-04 0.0000000000000000e+00  3.6088759921332387e-04 3.9163019097238777e-04 0.0000000000000000e+00  3.6088759921319545e-04 3.9163019097984491e-04 0.0000000000000000e+00  3.6088759921444732e-04 3.9163019097683083e-04 0.0000000000000000e+00  3.6088759921175102e-04 3.9163019097388180e-04 0.0000000000000000e+00  3.6088759921114116e-04 3.9163019097318791e-04 0.0000000000000000e+00  3.6088759921386955e-04 3.9163019097464074e-04 0.0000000000000000e+00  3.6088759921386955e-04 3.9163019097557532e-04 0.0000000000000000e+00  3.6088759921406216e-04 3.9163019097767651e-04 0.0000000000000000e+00  3.6088759921557077e-04 3.9163019098049543e-04 0.0000000000000000e+00  3.6088759921463993e-04 3.9163019097722114e-04 0.0000000000000000e+00  3.6088759921547450e-04 3.9163019097867397e-04 0.0000000000000000e+00  3.6088759921778564e-04 3.9163019097988828e-04 0.0000000000000000e+00  3.6088759921107692e-04 3.9163019097312503e-04 0.0000000000000000e+00  3.6088759921480039e-04 3.9163019097867397e-04 0.0000000000000000e+00  3.6088759921252140e-04 3.9163019097765482e-04 0.0000000000000000e+00  3.6088759921152632e-04 3.9163019097247234e-04 0.0000000000000000e+00  3.6088759921309917e-04 3.9163019097828366e-04 0.0000000000000000e+00  3.6088759921560287e-04 3.9163019097995333e-04 0.0000000000000000e+00  3.6088759921393374e-04 3.9163019097798225e-04 0.0000000000000000e+00  3.6088759921354857e-04 3.9163019097687420e-04 0.0000000000000000e+00  3.6088759921229670e-04 3.9163019097268918e-04 0.0000000000000000e+00  3.6088759921380537e-04 3.9163019097605020e-04 0.0000000000000000e+00  3.6088759921528189e-04 -1.7776288754039392e-04 0.0000000000000000e+00  8.3796001220230146e-04 1.1706646142495194e-03 0.0000000000000000e+00  8.3796001219608454e-04 1.1706646142478714e-03 0.0000000000000000e+00  8.3796001219692956e-04 1.1706646142489558e-03 0.0000000000000000e+00  8.3796001219662772e-04 1.1706646142509501e-03 0.0000000000000000e+00  8.3796001219892135e-04 1.1706646142539425e-03 0.0000000000000000e+00  8.3796001219421342e-04 1.1706646142486093e-03 0.0000000000000000e+00  8.3796001219723130e-04 1.1706646142525977e-03 0.0000000000000000e+00  8.3796001220387073e-04 1.1706646142597549e-03 0.0000000000000000e+00  8.3796001219898174e-04 1.1706646142516017e-03 0.0000000000000000e+00  8.3796001219886096e-04 1.1706646142516002e-03 0.0000000000000000e+00  8.3796001220151682e-04 1.1706646142553747e-03 0.0000000000000000e+00  8.3796001219976638e-04 1.1706646142517318e-03 0.0000000000000000e+00  8.3796001219940425e-04 1.1706646142531181e-03 0.0000000000000000e+00  8.3796001219994744e-04 1.1706646142543757e-03 0.0000000000000000e+00  8.3796001219916280e-04 1.1706646142463990e-03 0.0000000000000000e+00  8.3796001219698984e-04 1.1706646142485211e-03 0.0000000000000000e+00  8.3796001219982677e-04 1.1706646142529012e-03 0.0000000000000000e+00  8.3796001219910241e-04 1.1706646142534680e-03 0.0000000000000000e+00  8.3796001219886096e-04 1.1706646142479139e-03 0.0000000000000000e+00  8.3796001219771420e-04 1.1706646142494318e-03 0.0000000000000000e+00  8.3796001219916280e-04 1.1706646142503455e-03 0.0000000000000000e+00  8.3796001219686917e-04 1.1706646142467863e-03 0.0000000000000000e+00  8.3796001219759342e-04 1.1706646142506027e-03 0.0000000000000000e+00  8.3796001219765381e-04 1.1706646142456618e-03 0.0000000000000000e+00  8.3796001219590337e-04 1.1706646142505160e-03 0.0000000000000000e+00  8.3796001219789526e-04 1.1706646142498221e-03 0.0000000000000000e+00  8.3796001219952493e-04 1.1706646142532048e-03 0.0000000000000000e+00  8.3796001220012850e-04 1.1706646142545058e-03 0.0000000000000000e+00  8.3796001220206001e-04 1.1706646142521705e-03 0.0000000000000000e+00  8.3796001220230146e-04 1.1706646142543757e-03 0.0000000000000000e+00  8.3796001219771420e-04 1.1706646142502991e-03 0.0000000000000000e+00  8.3796001219686917e-04 1.1706646142466562e-03 0.0000000000000000e+00  8.3796001219674839e-04 1.1706646142452684e-03 0.0000000000000000e+00  8.3796001219898174e-04 1.1706646142495185e-03 0.0000000000000000e+00  8.3796001219952493e-04 1.1706646142489612e-03 0.0000000000000000e+00  8.3796001219934386e-04 1.1706646142541155e-03 0.0000000000000000e+00  8.3796001219976638e-04 1.1706646142495185e-03 0.0000000000000000e+00  8.3796001219928347e-04 1.1706646142519038e-03 0.0000000000000000e+00  8.3796001219789526e-04 1.1706646142513833e-03 0.0000000000000000e+00  8.3796001220006811e-04 1.1706646142514267e-03 0.0000000000000000e+00  8.3796001220230146e-04 1.1706646142510429e-03 0.0000000000000000e+00  8.3796001220067179e-04 1.1706646142518604e-03 0.0000000000000000e+00  8.3796001219855923e-04 1.1706646142507328e-03 0.0000000000000000e+00  8.3796001219662772e-04 1.1706646142478705e-03 0.0000000000000000e+00  8.3796001220024928e-04 1.1706646142541155e-03 0.0000000000000000e+00  8.3796001220127537e-04 1.1706646142529880e-03 0.0000000000000000e+00  8.3796001219976638e-04 1.1706646142550761e-03 0.0000000000000000e+00  8.3796001219819700e-04 1.1706646142494318e-03 0.0000000000000000e+00  8.3796001219898174e-04 1.1706646142512966e-03 0.0000000000000000e+00  8.3796001220115459e-04 1.1706646142545492e-03 0.0000000000000000e+00  8.3796001220230146e-04 -5.0096286962234026e-04 0.0000000000000000e+00  -3.1098959895548429e-04 -4.6796700914402897e-04 0.0000000000000000e+00  -3.1098959895407846e-04 -4.6796700914255446e-04 0.0000000000000000e+00  -3.1098959895667382e-04 -4.6796700914151373e-04 0.0000000000000000e+00  -3.1098959895407846e-04 -4.6796700913847775e-04 0.0000000000000000e+00  -3.1098959895645752e-04 -4.6796700914394213e-04 0.0000000000000000e+00  -3.1098959895602493e-04 -4.6796700913986596e-04 0.0000000000000000e+00  -3.1098959895916104e-04 -4.6796700914394180e-04 0.0000000000000000e+00  -3.1098959895656562e-04 -4.6796700914498340e-04 0.0000000000000000e+00  -3.1098959895310517e-04 -4.6796700913691693e-04 0.0000000000000000e+00  -3.1098959895689007e-04 -4.6796700914116625e-04 0.0000000000000000e+00  -3.1098959895461915e-04 -4.6796700914108027e-04 0.0000000000000000e+00  -3.1098959895397031e-04 -4.6796700914203437e-04 0.0000000000000000e+00  -3.1098959895872844e-04 -4.6796700914359486e-04 0.0000000000000000e+00  -3.1098959895570053e-04 -4.6796700914402854e-04 0.0000000000000000e+00  -3.1098959895537609e-04 -4.6796700914827991e-04 0.0000000000000000e+00  -3.1098959895645752e-04 -4.6796700914324791e-04 0.0000000000000000e+00  -3.1098959895807960e-04 -4.6796700914905924e-04 0.0000000000000000e+00  -3.1098959895548424e-04 -4.6796700914402984e-04 0.0000000000000000e+00  -3.1098959895418661e-04 -4.6796700913813048e-04 0.0000000000000000e+00  -3.1098959895689007e-04 -4.6796700914905924e-04 0.0000000000000000e+00  -3.1098959895494354e-04 -4.6796700914160123e-04 0.0000000000000000e+00  -3.1098959895937728e-04 -4.6796700914385507e-04 0.0000000000000000e+00  -3.1098959895883659e-04 -4.6796700915010007e-04 0.0000000000000000e+00  -3.1098959895245633e-04 -4.6796700914134102e-04 0.0000000000000000e+00  -3.1098959895515984e-04 -4.6796700914489590e-04 0.0000000000000000e+00  -3.1098959895710637e-04 -4.6796700914663062e-04 0.0000000000000000e+00  -3.1098959895753891e-04 -4.6796700914593673e-04 0.0000000000000000e+00  -3.1098959895786336e-04 -4.6796700914871229e-04 0.0000000000000000e+00  -3.1098959895440291e-04 -4.6796700914507203e-04 0.0000000000000000e+00  -3.1098959895678197e-04 -4.6796700914689083e-04 0.0000000000000000e+00  -3.1098959895656567e-04 -4.6796700914359486e-04 0.0000000000000000e+00  -3.1098959895883659e-04 -4.6796700914914597e-04 0.0000000000000000e+00  -3.1098959895970173e-04 -4.6796700915088070e-04 0.0000000000000000e+00  -3.1098959895840405e-04 -4.6796700915244195e-04 0.0000000000000000e+00  -3.1098959895602498e-04 -4.6796700914567918e-04 0.0000000000000000e+00  -3.1098959895602498e-04 -4.6796700914871229e-04 0.0000000000000000e+00  -3.1098959895872844e-04 -4.6796700914567653e-04 0.0000000000000000e+00  -3.1098959895278078e-04 -4.6796700914767146e-04 0.0000000000000000e+00  -3.1098959896045866e-04 -4.6796700915356952e-04 0.0000000000000000e+00  -3.1098959895591683e-04 -4.6796700914385507e-04 0.0000000000000000e+00  -3.1098959895624128e-04 -4.6796700914489856e-04 0.0000000000000000e+00  -3.1098959895526799e-04 -4.6796700914428875e-04 0.0000000000000000e+00  -3.1098959895591683e-04 -4.6796700914888576e-04 0.0000000000000000e+00  -3.1098959895818775e-04 -4.6796700914862556e-04 0.0000000000000000e+00  -3.1098959895515984e-04 -4.6796700914602347e-04 0.0000000000000000e+00  -3.1098959895364592e-04 -4.6796700914775819e-04 0.0000000000000000e+00  -3.1098959895699822e-04 -4.6796700914819453e-04 0.0000000000000000e+00  -3.1098959896164820e-04 -4.6796700915122764e-04 0.0000000000000000e+00  -3.1098959895580868e-04 -4.6796700914784493e-04 0.0000000000000000e+00  -3.1098959895980982e-04 -4.6796700915408994e-04 0.0000000000000000e+00  -3.1098959895548429e-04 -7.6933503195027587e-04 0.0000000000000000e+00  -9.7641486583047740e-04 -1.9573508142224634e-03 0.0000000000000000e+00  -9.7641486583206901e-04 -1.9573508142227236e-03 0.0000000000000000e+00  -9.7641486583065434e-04 -1.9573508142233316e-03 0.0000000000000000e+00  -9.7641486583233421e-04 -1.9573508142210756e-03 0.0000000000000000e+00  -9.7641486583171524e-04 -1.9573508142189939e-03 0.0000000000000000e+00  -9.7641486583427948e-04 -1.9573508142187350e-03 0.0000000000000000e+00  -9.7641486583286471e-04 -1.9573508142191661e-03 0.0000000000000000e+00  -9.7641486583091954e-04 -1.9573508142156125e-03 0.0000000000000000e+00  -9.7641486583047740e-04 -1.9573508142131839e-03 0.0000000000000000e+00  -9.7641486583339532e-04 -1.9573508142196865e-03 0.0000000000000000e+00  -9.7641486582676369e-04 -1.9573508142121431e-03 0.0000000000000000e+00  -9.7641486583498682e-04 -1.9573508142214239e-03 0.0000000000000000e+00  -9.7641486583719740e-04 -1.9573508142195131e-03 0.0000000000000000e+00  -9.7641486583357215e-04 -1.9573508142204672e-03 0.0000000000000000e+00  -9.7641486583074271e-04 -1.9573508142166560e-03 0.0000000000000000e+00  -9.7641486583348368e-04 -1.9573508142221151e-03 0.0000000000000000e+00  -9.7641486583056577e-04 -1.9573508142156967e-03 0.0000000000000000e+00  -9.7641486583003527e-04 -1.9573508142196917e-03 0.0000000000000000e+00  -9.7641486583516365e-04 -1.9573508142243703e-03 0.0000000000000000e+00  -9.7641486583047740e-04 -1.9573508142181253e-03 0.0000000000000000e+00  -9.7641486583030057e-04 -1.9573508142156151e-03 0.0000000000000000e+00  -9.7641486583383735e-04 -1.9573508142172579e-03 0.0000000000000000e+00  -9.7641486583304154e-04 -1.9573508142215080e-03 0.0000000000000000e+00  -9.7641486582977007e-04 -1.9573508142152682e-03 0.0000000000000000e+00  -9.7641486583321837e-04 -1.9573508142213345e-03 0.0000000000000000e+00  -9.7641486583180371e-04 -1.9573508142154365e-03 0.0000000000000000e+00  -9.7641486583277635e-04 -1.9573508142218549e-03 0.0000000000000000e+00  -9.7641486582994690e-04 -1.9573508142156099e-03 0.0000000000000000e+00  -9.7641486583091954e-04 -1.9573508142183096e-03 0.0000000000000000e+00  -9.7641486582826693e-04 -1.9573508142138752e-03 0.0000000000000000e+00  -9.7641486583259951e-04 -1.9573508142231560e-03 0.0000000000000000e+00  -9.7641486583277635e-04 -1.9573508142243703e-03 0.0000000000000000e+00  -9.7641486583401418e-04 -1.9573508142211610e-03 0.0000000000000000e+00  -9.7641486583348368e-04 -1.9573508142182987e-03 0.0000000000000000e+00  -9.7641486582932793e-04 -1.9573508142187433e-03 0.0000000000000000e+00  -9.7641486582897426e-04 -1.9573508142156099e-03 0.0000000000000000e+00  -9.7641486583224585e-04 -1.9573508142233294e-03 0.0000000000000000e+00  -9.7641486583074271e-04 -1.9573508142208141e-03 0.0000000000000000e+00  -9.7641486583100790e-04 -1.9573508142177783e-03 0.0000000000000000e+00  -9.7641486583392582e-04 -1.9573508142240233e-03 0.0000000000000000e+00  -9.7641486583215737e-04 -1.9573508142229933e-03 0.0000000000000000e+00  -9.7641486582994690e-04 -1.9573508142203804e-03 0.0000000000000000e+00  -9.7641486583242268e-04 -1.9573508142192528e-03 0.0000000000000000e+00  -9.7641486582923946e-04 -1.9573508142157834e-03 0.0000000000000000e+00  -9.7641486583127321e-04 -1.9573508142175181e-03 0.0000000000000000e+00  -9.7641486582994690e-04 -1.9573508142184722e-03 0.0000000000000000e+00  -9.7641486583047740e-04 -1.9573508142164881e-03 0.0000000000000000e+00  -9.7641486583003527e-04 -1.9573508142158701e-03 0.0000000000000000e+00  -9.7641486583003527e-04 -1.9573508142194263e-03 0.0000000000000000e+00  -9.7641486582906263e-04 -1.9573508142239366e-03 0.0000000000000000e+00  -9.7641486583047740e-04 1.3306457838337055e-03 0.0000000000000000e+00  3.8406956084701533e-04 1.4076312556019280e-03 0.0000000000000000e+00  3.8406956084502956e-04 1.4076312556014076e-03 0.0000000000000000e+00  3.8406956084293927e-04 1.4076312555991526e-03 0.0000000000000000e+00  3.8406956084346185e-04 1.4076312555942950e-03 0.0000000000000000e+00  3.8406956084534311e-04 1.4076312556078258e-03 0.0000000000000000e+00  3.8406956084356637e-04 1.4076312556010615e-03 0.0000000000000000e+00  3.8406956084743334e-04 1.4076312556041818e-03 0.0000000000000000e+00  3.8406956084711984e-04 1.4076312556026227e-03 0.0000000000000000e+00  3.8406956084837399e-04 1.4076312556055718e-03 0.0000000000000000e+00  3.8406956084586564e-04 1.4076312556036614e-03 0.0000000000000000e+00  3.8406956084565666e-04 1.4076312556057452e-03 0.0000000000000000e+00  3.8406956084941916e-04 1.4076312556080004e-03 0.0000000000000000e+00  3.8406956084617919e-04 1.4076312556085186e-03 0.0000000000000000e+00  3.8406956084534305e-04 1.4076312556133759e-03 0.0000000000000000e+00  3.8406956084806044e-04 1.4076312556064409e-03 0.0000000000000000e+00  3.8406956084513402e-04 1.4076312556118146e-03 0.0000000000000000e+00  3.8406956084785141e-04 1.4076312556125085e-03 0.0000000000000000e+00  3.8406956084576112e-04 1.4076312555995020e-03 0.0000000000000000e+00  3.8406956084502950e-04 1.4076312556116411e-03 0.0000000000000000e+00  3.8406956084764237e-04 1.4076312556171922e-03 0.0000000000000000e+00  3.8406956084565660e-04 1.4076312556001959e-03 0.0000000000000000e+00  3.8406956084544757e-04 1.4076312556114677e-03 0.0000000000000000e+00  3.8406956084607467e-04 1.4076312556145902e-03 0.0000000000000000e+00  3.8406956084523854e-04 1.4076312556057470e-03 0.0000000000000000e+00  3.8406956084691075e-04 1.4076312556145902e-03 0.0000000000000000e+00  3.8406956084785141e-04 1.4076312556119881e-03 0.0000000000000000e+00  3.840695608