<?xml version="1.0"?>
<VTKFile type="UnstructuredGrid"  version="0.1"  >
<UnstructuredGrid>
<Piece  NumberOfPoints="2601" NumberOfCells="5000">
<Points>
<DataArray  type="Float64"  NumberOfComponents="3"  format="ascii">0 0 0  0.02 0 0  0.04 0 0  0.06 0 0  0.08 0 0  0.1 0 0  0.12 0 0  0.14 0 0  0.16 0 0  0.18 0 0  0.2 0 0  0.22 0 0  0.24 0 0  0.26 0 0  0.28 0 0  0.3 0 0  0.32 0 0  0.34 0 0  0.36 0 0  0.38 0 0  0.4 0 0  0.42 0 0  0.44 0 0  0.46 0 0  0.48 0 0  0.5 0 0  0.52 0 0  0.54 0 0  0.5600000000000001 0 0  0.58 0 0  0.6 0 0  0.62 0 0  0.64 0 0  0.66 0 0  0.68 0 0  0.7 0 0  0.72 0 0  0.74 0 0  0.76 0 0  0.78 0 0  0.8 0 0  0.82 0 0  0.84 0 0  0.86 0 0  0.88 0 0  0.9 0 0  0.92 0 0  0.9399999999999999 0 0  0.96 0 0  0.98 0 0  1 0 0  0 0.01313563088723984 0  0.02 0.01313563088723984 0  0.04 0.01313563088723984 0  0.06 0.01313563088723984 0  0.08 0.01313563088723984 0  0.1 0.01313563088723984 0  0.12 0.01313563088723984 0  0.14 0.01313563088723984 0  0.16 0.01313563088723984 0  0.18 0.01313563088723984 0  0.2 0.01313563088723984 0  0.22 0.01313563088723984 0  0.24 0.01313563088723984 0  0.26 0.01313563088723984 0  0.28 0.01313563088723984 0  0.3 0.01313563088723984 0  0.32 0.01313563088723984 0  0.34 0.01313563088723984 0  0.36 0.01313563088723984 0  0.38 0.01313563088723984 0  0.4 0.01313563088723984 0  0.42 0.01313563088723984 0  0.44 0.01313563088723984 0  0.46 0.01313563088723984 0  0.48 0.01313563088723984 0  0.5 0.01313563088723984 0  0.52 0.01313563088723984 0  0.54 0.01313563088723984 0  0.5600000000000001 0.01313563088723984 0  0.58 0.01313563088723984 0  0.6 0.01313563088723984 0  0.62 0.01313563088723984 0  0.64 0.01313563088723984 0  0.66 0.01313563088723984 0  0.68 0.01313563088723984 0  0.7 0.01313563088723984 0  0.72 0.01313563088723984 0  0.74 0.01313563088723984 0  0.76 0.01313563088723984 0  0.78 0.01313563088723984 0  0.8 0.01313563088723984 0  0.82 0.01313563088723984 0  0.84 0.01313563088723984 0  0.86 0.01313563088723984 0  0.88 0.01313563088723984 0  0.9 0.01313563088723984 0  0.92 0.01313563088723984 0  0.9399999999999999 0.01313563088723984 0  0.96 0.01313563088723984 0  0.98 0.01313563088723984 0  1 0.01313563088723984 0  0 0.02664639863733726 0  0.02 0.02664639863733726 0  0.04 0.02664639863733726 0  0.06 0.02664639863733726 0  0.08 0.02664639863733726 0  0.1 0.02664639863733726 0  0.12 0.02664639863733726 0  0.14 0.02664639863733726 0  0.16 0.02664639863733726 0  0.18 0.02664639863733726 0  0.2 0.02664639863733726 0  0.22 0.02664639863733726 0  0.24 0.02664639863733726 0  0.26 0.02664639863733726 0  0.28 0.02664639863733726 0  0.3 0.02664639863733726 0  0.32 0.02664639863733726 0  0.34 0.02664639863733726 0  0.36 0.02664639863733726 0  0.38 0.02664639863733726 0  0.4 0.02664639863733726 0  0.42 0.02664639863733726 0  0.44 0.02664639863733726 0  0.46 0.02664639863733726 0  0.48 0.02664639863733726 0  0.5 0.02664639863733726 0  0.52 0.02664639863733726 0  0.54 0.02664639863733726 0  0.5600000000000001 0.02664639863733726 0  0.58 0.02664639863733726 0  0.6 0.02664639863733726 0  0.62 0.02664639863733726 0  0.64 0.02664639863733726 0  0.66 0.02664639863733726 0  0.68 0.02664639863733726 0  0.7 0.02664639863733726 0  0.72 0.02664639863733726 0  0.74 0.02664639863733726 0  0.76 0.02664639863733726 0  0.78 0.02664639863733726 0  0.8 0.02664639863733726 0  0.82 0.02664639863733726 0  0.84 0.02664639863733726 0  0.86 0.02664639863733726 0  0.88 0.02664639863733726 0  0.9 0.02664639863733726 0  0.92 0.02664639863733726 0  0.9399999999999999 0.02664639863733726 0  0.96 0.02664639863733726 0  0.98 0.02664639863733726 0  1 0.02664639863733726 0  0 0.04101652939099896 0  0.02 0.04101652939099896 0  0.04 0.04101652939099896 0  0.06 0.04101652939099896 0  0.08 0.04101652939099896 0  0.1 0.04101652939099896 0  0.12 0.04101652939099896 0  0.14 0.04101652939099896 0  0.16 0.04101652939099896 0  0.18 0.04101652939099896 0  0.2 0.04101652939099896 0  0.22 0.04101652939099896 0  0.24 0.04101652939099896 0  0.26 0.04101652939099896 0  0.28 0.04101652939099896 0  0.3 0.04101652939099896 0  0.32 0.04101652939099896 0  0.34 0.04101652939099896 0  0.36 0.04101652939099896 0  0.38 0.04101652939099896 0  0.4 0.04101652939099896 0  0.42 0.04101652939099896 0  0.44 0.04101652939099896 0  0.46 0.04101652939099896 0  0.48 0.04101652939099896 0  0.5 0.04101652939099896 0  0.52 0.04101652939099896 0  0.54 0.04101652939099896 0  0.5600000000000001 0.04101652939099896 0  0.58 0.04101652939099896 0  0.6 0.04101652939099896 0  0.62 0.04101652939099896 0  0.64 0.04101652939099896 0  0.66 0.04101652939099896 0  0.68 0.04101652939099896 0  0.7 0.04101652939099896 0  0.72 0.04101652939099896 0  0.74 0.04101652939099896 0  0.76 0.04101652939099896 0  0.78 0.04101652939099896 0  0.8 0.04101652939099896 0  0.82 0.04101652939099896 0  0.84 0.04101652939099896 0  0.86 0.04101652939099896 0  0.88 0.04101652939099896 0  0.9 0.04101652939099896 0  0.92 0.04101652939099896 0  0.9399999999999999 0.04101652939099896 0  0.96 0.04101652939099896 0  0.98 0.04101652939099896 0  1 0.04101652939099896 0  0 0.05705811164099547 0  0.02 0.05705811164099547 0  0.04 0.05705811164099547 0  0.06 0.05705811164099547 0  0.08 0.05705811164099547 0  0.1 0.05705811164099547 0  0.12 0.05705811164099547 0  0.14 0.05705811164099547 0  0.16 0.05705811164099547 0  0.18 0.05705811164099547 0  0.2 0.05705811164099547 0  0.22 0.05705811164099547 0  0.24 0.05705811164099547 0  0.26 0.05705811164099547 0  0.28 0.05705811164099547 0  0.3 0.05705811164099547 0  0.32 0.05705811164099547 0  0.34 0.05705811164099547 0  0.36 0.05705811164099547 0  0.38 0.05705811164099547 0  0.4 0.05705811164099547 0  0.42 0.05705811164099547 0  0.44 0.05705811164099547 0  0.46 0.05705811164099547 0  0.48 0.05705811164099547 0  0.5 0.05705811164099547 0  0.52 0.05705811164099547 0  0.54 0.05705811164099547 0  0.5600000000000001 0.05705811164099547 0  0.58 0.05705811164099547 0  0.6 0.05705811164099547 0  0.62 0.05705811164099547 0  0.64 0.05705811164099547 0  0.66 0.05705811164099547 0  0.68 0.05705811164099547 0  0.7 0.05705811164099547 0  0.72 0.05705811164099547 0  0.74 0.05705811164099547 0  0.76 0.05705811164099547 0  0.78 0.05705811164099547 0  0.8 0.05705811164099547 0  0.82 0.05705811164099547 0  0.84 0.05705811164099547 0  0.86 0.05705811164099547 0  0.88 0.05705811164099547 0  0.9 0.05705811164099547 0  0.92 0.05705811164099547 0  0.9399999999999999 0.05705811164099547 0  0.96 0.05705811164099547 0  0.98 0.05705811164099547 0  1 0.05705811164099547 0  0 0.07667714377545 0  0.02 0.07667714377545 0  0.04 0.07667714377545 0  0.06 0.07667714377545 0  0.08 0.07667714377545 0  0.1 0.07667714377545 0  0.12 0.07667714377545 0  0.14 0.07667714377545 0  0.16 0.07667714377545 0  0.18 0.07667714377545 0  0.2 0.07667714377545 0  0.22 0.07667714377545 0  0.24 0.07667714377545 0  0.26 0.07667714377545 0  0.28 0.07667714377545 0  0.3 0.07667714377545 0  0.32 0.07667714377545 0  0.34 0.07667714377545 0  0.36 0.07667714377545 0  0.38 0.07667714377545 0  0.4 0.07667714377545 0  0.42 0.07667714377545 0  0.44 0.07667714377545 0  0.46 0.07667714377545 0  0.48 0.07667714377545 0  0.5 0.07667714377545 0  0.52 0.07667714377545 0  0.54 0.07667714377545 0  0.5600000000000001 0.07667714377545 0  0.58 0.07667714377545 0  0.6 0.07667714377545 0  0.62 0.07667714377545 0  0.64 0.07667714377545 0  0.66 0.07667714377545 0  0.68 0.07667714377545 0  0.7 0.07667714377545 0  0.72 0.07667714377545 0  0.74 0.07667714377545 0  0.76 0.07667714377545 0  0.78 0.07667714377545 0  0.8 0.07667714377545 0  0.82 0.07667714377545 0  0.84 0.07667714377545 0  0.86 0.07667714377545 0  0.88 0.07667714377545 0  0.9 0.07667714377545 0  0.92 0.07667714377545 0  0.9399999999999999 0.07667714377545 0  0.96 0.07667714377545 0  0.98 0.07667714377545 0  1 0.07667714377545 0  0 0.1098730133816912 0  0.02 0.1098730133816912 0  0.04 0.1098730133816912 0  0.06 0.1098730133816912 0  0.08 0.1098730133816912 0  0.1 0.1098730133816912 0  0.12 0.1098730133816912 0  0.14 0.1098730133816912 0  0.16 0.1098730133816912 0  0.18 0.1098730133816912 0  0.2 0.1098730133816912 0  0.22 0.1098730133816912 0  0.24 0.1098730133816912 0  0.26 0.1098730133816912 0  0.28 0.1098730133816912 0  0.3 0.1098730133816912 0  0.32 0.1098730133816912 0  0.34 0.1098730133816912 0  0.36 0.1098730133816912 0  0.38 0.1098730133816912 0  0.4 0.1098730133816912 0  0.42 0.1098730133816912 0  0.44 0.1098730133816912 0  0.46 0.1098730133816912 0  0.48 0.1098730133816912 0  0.5 0.1098730133816912 0  0.52 0.1098730133816912 0  0.54 0.1098730133816912 0  0.5600000000000001 0.1098730133816912 0  0.58 0.1098730133816912 0  0.6 0.1098730133816912 0  0.62 0.1098730133816912 0  0.64 0.1098730133816912 0  0.66 0.1098730133816912 0  0.68 0.1098730133816912 0  0.7 0.1098730133816912 0  0.72 0.1098730133816912 0  0.74 0.1098730133816912 0  0.76 0.1098730133816912 0  0.78 0.1098730133816912 0  0.8 0.1098730133816912 0  0.82 0.1098730133816912 0  0.84 0.1098730133816912 0  0.86 0.1098730133816912 0  0.88 0.1098730133816912 0  0.9 0.1098730133816912 0  0.92 0.1098730133816912 0  0.9399999999999999 0.1098730133816912 0  0.96 0.1098730133816912 0  0.98 0.1098730133816912 0  1 0.1098730133816912 0  0 0.1603283563168221 0  0.02 0.1603283563168221 0  0.04 0.1603283563168221 0  0.06 0.1603283563168221 0  0.08 0.1603283563168221 0  0.1 0.1603283563168221 0  0.12 0.1603283563168221 0  0.14 0.1603283563168221 0  0.16 0.1603283563168221 0  0.18 0.1603283563168221 0  0.2 0.1603283563168221 0  0.22 0.1603283563168221 0  0.24 0.1603283563168221 0  0.26 0.1603283563168221 0  0.28 0.1603283563168221 0  0.3 0.1603283563168221 0  0.32 0.1603283563168221 0  0.34 0.1603283563168221 0  0.36 0.1603283563168221 0  0.38 0.1603283563168221 0  0.4 0.1603283563168221 0  0.42 0.1603283563168221 0  0.44 0.1603283563168221 0  0.46 0.1603283563168221 0  0.48 0.1603283563168221 0  0.5 0.1603283563168221 0  0.52 0.1603283563168221 0  0.54 0.1603283563168221 0  0.5600000000000001 0.1603283563168221 0  0.58 0.1603283563168221 0 
[...]
<PointData  Vectors="u_paraw"> 
<DataArray  type="Float64"  Name="u_paraw"  NumberOfComponents="3" format="ascii">9.1729121951450866e-05 5.3368838279919039e-04 0.0000000000000000e+00  9.1729121953448305e-05 5.3368838280543540e-04 0.0000000000000000e+00  9.1729121948528955e-05 5.3368838280120701e-04 0.0000000000000000e+00  9.1729121946762640e-05 5.3368838280090332e-04 0.0000000000000000e+00  9.1729121947307398e-05 5.3368838280527266e-04 0.0000000000000000e+00  9.1729121954290188e-05 5.3368838280976158e-04 0.0000000000000000e+00  9.1729121944435021e-05 5.3368838280221478e-04 0.0000000000000000e+00  9.1729121945673112e-05 5.3368838280602108e-04 0.0000000000000000e+00  9.1729121945805168e-05 5.3368838280354910e-04 0.0000000000000000e+00  9.1729121948083253e-05 5.3368838280250751e-04 0.0000000000000000e+00  9.1729121958433643e-05 5.3368838280979411e-04 0.0000000000000000e+00  9.1729121944765187e-05 5.3368838280648729e-04 0.0000000000000000e+00  9.1729121950774026e-05 5.3368838279825744e-04 0.0000000000000000e+00  9.1729121949734032e-05 5.3368838279910312e-04 0.0000000000000000e+00  9.1729121943048367e-05 5.3368838279862769e-04 0.0000000000000000e+00  9.1729121957377142e-05 5.3368838280478433e-04 0.0000000000000000e+00  9.1729121948727052e-05 5.3368838279672871e-04 0.0000000000000000e+00  9.1729121946680092e-05 5.3368838279288142e-04 0.0000000000000000e+00  9.1729121956469218e-05 5.3368838279574209e-04 0.0000000000000000e+00  9.1729121951896554e-05 5.3368838280424223e-04 0.0000000000000000e+00  9.1729121955973981e-05 5.3368838280713868e-04 0.0000000000000000e+00  9.1729121946713106e-05 5.3368838279428926e-04 0.0000000000000000e+00  9.1729121950691477e-05 5.3368838279869112e-04 0.0000000000000000e+00  9.1729121946828654e-05 5.3368838281045634e-04 0.0000000000000000e+00  9.1729121948380392e-05 5.3368838279408326e-04 0.0000000000000000e+00  9.1729121939152530e-05 5.3368838280233404e-04 0.0000000000000000e+00  9.1729121948314364e-05 5.3368838280088121e-04 0.0000000000000000e+00  9.1729121952754958e-05 5.3368838279618661e-04 0.0000000000000000e+00  9.1729121945194382e-05 5.3368838280863618e-04 0.0000000000000000e+00  9.1729121949701018e-05 5.3368838279898385e-04 0.0000000000000000e+00  9.1729121945706126e-05 5.3368838279274969e-04 0.0000000000000000e+00  9.1729121937914439e-05 5.3368838278693837e-04 0.0000000000000000e+00  9.1729121951863540e-05 5.3368838280079447e-04 0.0000000000000000e+00  9.1729121951681950e-05 5.3368838279581798e-04 0.0000000000000000e+00  9.1729121946382953e-05 5.3368838279351156e-04 0.0000000000000000e+00  9.1729121954570820e-05 5.3368838280142331e-04 0.0000000000000000e+00  9.1729121951946075e-05 5.3368838281220028e-04 0.0000000000000000e+00  9.1729121943626138e-05 5.3368838280325561e-04 0.0000000000000000e+00  9.1729121949453400e-05 5.3368838280360255e-04 0.0000000000000000e+00  9.1729121950922588e-05 5.3368838280549991e-04 0.0000000000000000e+00  9.1729121951500360e-05 5.3368838280831092e-04 0.0000000000000000e+00  9.1729121947753099e-05 5.3368838280772252e-04 0.0000000000000000e+00  9.1729121948512448e-05 5.3368838281009693e-04 0.0000000000000000e+00  9.1729121951351797e-05 5.3368838280591191e-04 0.0000000000000000e+00  9.1729121951797512e-05 5.3368838280773336e-04 0.0000000000000000e+00  9.1729121950972123e-05 5.3368838281485657e-04 0.0000000000000000e+00  9.1729121948611503e-05 5.3368838281407887e-04 0.0000000000000000e+00  9.1729121951863540e-05 5.3368838279842007e-04 0.0000000000000000e+00  9.1729121951797512e-05 5.3368838281251470e-04 0.0000000000000000e+00  9.1729121948561982e-05 5.3368838280430729e-04 0.0000000000000000e+00  9.1729121951450839e-05 -7.5169078232845917e-15 0.0000000000000000e+00  -3.7513484158414977e-05 4.6787692367482303e-04 0.0000000000000000e+00  -3.7513484150069263e-05 4.6787692367224263e-04 0.0000000000000000e+00  -3.7513484158543374e-05 4.6787692366790604e-04 0.0000000000000000e+00  -3.7513484145093941e-05 4.6787692368215224e-04 0.0000000000000000e+00  -3.7513484153214961e-05 4.6787692367905142e-04 0.0000000000000000e+00  -3.7513484153118663e-05 4.6787692367731713e-04 0.0000000000000000e+00  -3.7513484153086564e-05 4.6787692367126653e-04 0.0000000000000000e+00  -3.7513484157484115e-05 4.6787692367603777e-04 0.0000000000000000e+00  -3.7513484155654476e-05 4.6787692367317548e-04 0.0000000000000000e+00  -3.7513484151931008e-05 4.6787692367770669e-04 0.0000000000000000e+00  -3.7513484150326063e-05 4.6787692367753397e-04 0.0000000000000000e+00  -3.7513484152765579e-05 4.6787692367853144e-04 0.0000000000000000e+00  -3.7513484150518651e-05 4.6787692368054730e-04 0.0000000000000000e+00  -3.7513484153439655e-05 4.6787692367469260e-04 0.0000000000000000e+00  -3.7513484161528575e-05 4.6787692367556121e-04 0.0000000000000000e+00  -3.7513484149459393e-05 4.6787692367122316e-04 0.0000000000000000e+00  -3.7513484148175433e-05 4.6787692367469260e-04 0.0000000000000000e+00  -3.7513484154177929e-05 4.6787692366942463e-04 0.0000000000000000e+00  -3.7513484153086564e-05 4.6787692366248449e-04 0.0000000000000000e+00  -3.7513484152123596e-05 4.6787692366753687e-04 0.0000000000000000e+00  -3.7513484147019870e-05 4.6787692367311092e-04 0.0000000000000000e+00  -3.7513484155782873e-05 4.6787692367870415e-04 0.0000000000000000e+00  -3.7513484146217398e-05 4.6787692366875118e-04 0.0000000000000000e+00  -3.7513484155975468e-05 4.6787692366907768e-04 0.0000000000000000e+00  -3.7513484150743345e-05 4.6787692368160981e-04 0.0000000000000000e+00  -3.7513484150903841e-05 4.6787692367681764e-04 0.0000000000000000e+00  -3.7513484158703876e-05 4.6787692367495281e-04 0.0000000000000000e+00  -3.7513484160052028e-05 4.6787692367072442e-04 0.0000000000000000e+00  -3.7513484149523591e-05 4.6787692367894528e-04 0.0000000000000000e+00  -3.7513484151674214e-05 4.6787692367378187e-04 0.0000000000000000e+00  -3.7513484150229766e-05 4.6787692367460587e-04 0.0000000000000000e+00  -3.7513484154691508e-05 4.6787692368221697e-04 0.0000000000000000e+00  -3.7513484142718616e-05 4.6787692368258560e-04 0.0000000000000000e+00  -3.7513484152155695e-05 4.6787692366972696e-04 0.0000000000000000e+00  -3.7513484154274226e-05 4.6787692366888388e-04 0.0000000000000000e+00  -3.7513484150005072e-05 4.6787692367423724e-04 0.0000000000000000e+00  -3.7513484147982838e-05 4.6787692366218091e-04 0.0000000000000000e+00  -3.7513484151610016e-05 4.6787692368384327e-04 0.0000000000000000e+00  -3.7513484158607579e-05 4.6787692366402405e-04 0.0000000000000000e+00  -3.7513484143681584e-05 4.6787692368208686e-04 0.0000000000000000e+00  -3.7513484152797678e-05 4.6787692367658172e-04 0.0000000000000000e+00  -3.7513484152733480e-05 4.6787692367347830e-04 0.0000000000000000e+00  -3.7513484153439655e-05 4.6787692367380356e-04 0.0000000000000000e+00  -3.7513484153568051e-05 4.6787692367634059e-04 0.0000000000000000e+00  -3.7513484156521147e-05 4.6787692366851265e-04 0.0000000000000000e+00  -3.7513484147276663e-05 4.6787692368314938e-04 0.0000000000000000e+00  -3.7513484150935940e-05 4.6787692369119676e-04 0.0000000000000000e+00  -3.7513484154210028e-05 4.6787692367753321e-04 0.0000000000000000e+00  -3.7513484143328500e-05 4.6787692368625020e-04 0.0000000000000000e+00  -3.7513484145703818e-05 4.6787692369047859e-04 0.0000000000000000e+00  -3.7513484158414984e-05 7.0728243855803174e-04 0.0000000000000000e+00  6.1604668568267671e-05 1.6991562461960742e-04 0.0000000000000000e+00  6.1604668563318261e-05 1.6991562461834975e-04 0.0000000000000000e+00  6.1604668568991972e-05 1.6991562462121207e-04 0.0000000000000000e+00  6.1604668576174649e-05 1.6991562461496698e-04 0.0000000000000000e+00  6.1604668563680412e-05 1.6991562461847980e-04 0.0000000000000000e+00  6.1604668557644536e-05 1.6991562460412512e-04 0.0000000000000000e+00  6.1604668579675457e-05 1.6991562462758699e-04 0.0000000000000000e+00  6.1604668566215466e-05 1.6991562462312035e-04 0.0000000000000000e+00  6.1604668563438973e-05 1.6991562461427326e-04 0.0000000000000000e+00  6.1604668574967471e-05 1.6991562462541858e-04 0.0000000000000000e+00  6.1604668561809282e-05 1.6991562461778607e-04 0.0000000000000000e+00  6.1604668568871246e-05 1.6991562461527072e-04 0.0000000000000000e+00  6.1604668568991972e-05 1.6991562461418625e-04 0.0000000000000000e+00  6.1604668566396541e-05 1.6991562461518371e-04 0.0000000000000000e+00  6.1604668578709717e-05 1.6991562463136050e-04 0.0000000000000000e+00  6.1604668567181206e-05 1.6991562462099504e-04 0.0000000000000000e+00  6.1604668564947939e-05 1.6991562460421159e-04 0.0000000000000000e+00  6.1604668571527027e-05 1.6991562462164605e-04 0.0000000000000000e+00  6.1604668569957712e-05 1.6991562461973736e-04 0.0000000000000000e+00  6.1604668573035992e-05 1.6991562461418625e-04 0.0000000000000000e+00  6.1604668574243170e-05 1.6991562462524560e-04 0.0000000000000000e+00  6.1604668568026233e-05 1.6991562461522708e-04 0.0000000000000000e+00  6.1604668573156718e-05 1.6991562462520174e-04 0.0000000000000000e+00  6.1604668568629822e-05 1.6991562461952101e-04 0.0000000000000000e+00  6.1604668564947939e-05 1.6991562460815808e-04 0.0000000000000000e+00  6.1604668568448746e-05 1.6991562462151546e-04 0.0000000000000000e+00  6.1604668565732603e-05 1.6991562462051799e-04 0.0000000000000000e+00  6.1604668575993574e-05 1.6991562462637268e-04 0.0000000000000000e+00  6.1604668559213865e-05 1.6991562461015399e-04 0.0000000000000000e+00  6.1604668568026233e-05 1.6991562462806404e-04 0.0000000000000000e+00  6.1604668566939767e-05 1.6991562461483677e-04 0.0000000000000000e+00  6.1604668572070266e-05 1.6991562462403080e-04 0.0000000000000000e+00  6.1604668571225239e-05 1.6991562461223468e-04 0.0000000000000000e+00  6.1604668559394940e-05 1.6991562461843632e-04 0.0000000000000000e+00  6.1604668566637980e-05 1.6991562462112612e-04 0.0000000000000000e+00  6.1604668568026233e-05 1.6991562461288521e-04 0.0000000000000000e+00  6.1604668570983801e-05 1.6991562461553066e-04 0.0000000000000000e+00  6.1604668573096355e-05 1.6991562461847969e-04 0.0000000000000000e+00  6.1604668564887576e-05 1.6991562462038789e-04 0.0000000000000000e+00  6.1604668582934812e-05 1.6991562462064809e-04 0.0000000000000000e+00  6.1604668566939767e-05 1.6991562461410049e-04 0.0000000000000000e+00  6.1604668562292159e-05 1.6991562462181903e-04 0.0000000000000000e+00  6.1604668566577617e-05 1.6991562461409951e-04 0.0000000000000000e+00  6.1604668570078424e-05 1.6991562461795927e-04 0.0000000000000000e+00  6.1604668571828828e-05 1.6991562461917358e-04 0.0000000000000000e+00  6.1604668567784795e-05 1.6991562461574750e-04 0.0000000000000000e+00  6.1604668566215466e-05 1.6991562461748320e-04 0.0000000000000000e+00  6.1604668559032789e-05 1.6991562461834958e-04 0.0000000000000000e+00  6.1604668576536800e-05 1.6991562462355376e-04 0.0000000000000000e+00  6.1604668570199137e-05 1.6991562461314541e-04 0.0000000000000000e+00  6.1604668568267671e-05 3.8916516444989643e-04 0.0000000000000000e+00  -1.2866578426546797e-04 1.0118810573715720e-04 0.0000000000000000e+00  -1.2866578428255397e-04 1.0118810570471787e-04 0.0000000000000000e+00  -1.2866578427541677e-04 1.0118810572033039e-04 0.0000000000000000e+00  -1.2866578426730635e-04 1.0118810571261085e-04 0.0000000000000000e+00  -1.2866578426676563e-04 1.0118810571157001e-04 0.0000000000000000e+00  -1.2866578426427841e-04 1.0118810573264697e-04 0.0000000000000000e+00  -1.2866578427465981e-04 1.0118810570679945e-04 0.0000000000000000e+00  -1.2866578426892842e-04 1.0118810571209050e-04 0.0000000000000000e+00  -1.2866578426957723e-04 1.0118810571061598e-04 0.0000000000000000e+00  -1.2866578426892842e-04 1.0118810571911599e-04 0.0000000000000000e+00  -1.2866578427044235e-04 1.0118810571703446e-04 0.0000000000000000e+00  -1.2866578427000980e-04 1.0118810571642731e-04 0.0000000000000000e+00  -1.2866578427985048e-04 1.0118810570385042e-04 0.0000000000000000e+00  -1.2866578426849588e-04 1.0118810572440690e-04 0.0000000000000000e+00  -1.2866578426125053e-04 1.0118810572067751e-04 0.0000000000000000e+00  -1.2866578427530863e-04 1.0118810571660064e-04 0.0000000000000000e+00  -1.2866578426903657e-04 1.0118810572536100e-04 0.0000000000000000e+00  -1.2866578426687378e-04 1.0118810571677439e-04 0.0000000000000000e+00  -1.2866578427411909e-04 1.0118810570992196e-04 0.0000000000000000e+00  -1.2866578426481913e-04 1.0118810572510079e-04 0.0000000000000000e+00  -1.2866578425908774e-04 1.0118810571391209e-04 0.0000000000000000e+00  -1.2866578427271329e-04 1.0118810571816189e-04 0.0000000000000000e+00  -1.2866578426936099e-04 1.0118810572683551e-04 0.0000000000000000e+00  -1.2866578427087492e-04 1.0118810571842237e-04 0.0000000000000000e+00  -1.2866578427866095e-04 1.0118810570558515e-04 0.0000000000000000e+00  -1.2866578426665751e-04 1.0118810572284565e-04 0.0000000000000000e+00  -1.2866578427228075e-04 1.0118810572249870e-04 0.0000000000000000e+00  -1.2866578427487608e-04 1.0118810571096279e-04 0.0000000000000000e+00  -1.2866578427152376e-04 1.0118810571738181e-04 0.0000000000000000e+00  -1.2866578427271329e-04 1.0118810571009543e-04 0.0000000000000000e+00  -1.2866578427336213e-04 1.0118810571885578e-04 0.0000000000000000e+00  -1.2866578427238887e-04 1.0118810570428411e-04 0.0000000000000000e+00  -1.2866578427022610e-04 1.0118810571252404e-04 0.0000000000000000e+00  -1.2866578427465981e-04 1.0118810571243731e-04 0.0000000000000000e+00  -1.2866578426860400e-04 1.0118810571781549e-04 0.0000000000000000e+00  -1.2866578427995861e-04 1.0118810569942688e-04 0.0000000000000000e+00  -1.2866578426525170e-04 1.0118810572362627e-04 0.0000000000000000e+00  -1.2866578427055052e-04 1.0118810569907994e-04 0.0000000000000000e+00  -1.2866578426752262e-04 1.0118810571634043e-04 0.0000000000000000e+00  -1.2866578427303771e-04 1.0118810571313120e-04 0.0000000000000000e+00  -1.2866578426882027e-04 1.0118810571451952e-04 0.0000000000000000e+00  -1.2866578427995861e-04 1.0118810568979916e-04 0.0000000000000000e+00  -1.2866578427087492e-04 1.0118810572388648e-04 0.0000000000000000e+00  -1.2866578427163191e-04 1.0118810570914133e-04 0.0000000000000000e+00  -1.2866578426146681e-04 1.0118810570792702e-04 0.0000000000000000e+00  -1.2866578426903657e-04 1.0118810571434550e-04 0.0000000000000000e+00  -1.2866578426471098e-04 1.0118810571243785e-04 0.0000000000000000e+00  -1.2866578426946911e-04 1.0118810572666204e-04 0.0000000000000000e+00  -1.2866578426860400e-04 1.0118810571729453e-04 0.0000000000000000e+00  -1.2866578426719820e-04 1.0118810571833537e-04 0.0000000000000000e+00  -1.2866578426546797e-04 -3.0270208841322533e-04 0.0000000000000000e+00  7.4521921963069501e-05 9.4762992916422653e-04 0.0000000000000000e+00  7.4521921950690637e-05 9.4762992916344591e-04 0.0000000000000000e+00  7.4521921959532685e-05 9.4762992917237995e-04 0.0000000000000000e+00  7.4521921951132734e-05 9.4762992916171108e-04 0.0000000000000000e+00  7.4521921956791646e-05 9.4762992917732359e-04 0.0000000000000000e+00  7.4521921955642174e-05 9.4762992919128865e-04 0.0000000000000000e+00  7.4521921943174893e-05 9.4762992916370536e-04 0.0000000000000000e+00  7.4521921952105358e-05 9.4762992917689045e-04 0.0000000000000000e+00  7.4521921954581134e-05 9.4762992917506899e-04 0.0000000000000000e+00  7.4521921950602220e-05 9.4762992915494500e-04 0.0000000000000000e+00  7.4521921947065403e-05 9.4762992915884932e-04 0.0000000000000000e+00  7.4521921945915932e-05 9.4762992916578822e-04 0.0000000000000000e+00  7.4521921935393899e-05 9.4762992914219479e-04 0.0000000000000000e+00  7.4521921955730605e-05 9.4762992915321028e-04 0.0000000000000000e+00  7.4521921953431662e-05 9.4762992915251899e-04 0.0000000000000000e+00  7.4521921956437965e-05 9.4762992916960342e-04 0.0000000000000000e+00  7.4521921955288494e-05 9.4762992916639418e-04 0.0000000000000000e+00  7.4521921943970684e-05 9.4762992916275386e-04 0.0000000000000000e+00  7.4521921946976973e-05 9.4762992916058286e-04 0.0000000000000000e+00  7.4521921962538974e-05 9.4762992916119001e-04 0.0000000000000000e+00  7.4521921947949597e-05 9.4762992915460066e-04 0.0000000000000000e+00  7.4521921949187485e-05 9.4762992915459806e-04 0.0000000000000000e+00  7.4521921952547468e-05 9.4762992914739896e-04 0.0000000000000000e+00  7.4521921950955900e-05 9.4762992916483553e-04 0.0000000000000000e+00  7.4521921938223355e-05 9.4762992915798077e-04 0.0000000000000000e+00  7.4521921952724302e-05 9.4762992916092980e-04 0.0000000000000000e+00  7.4521921952370621e-05 9.4762992914887347e-04 0.0000000000000000e+00  7.4521921959355838e-05 9.4762992916162369e-04 0.0000000000000000e+00  7.4521921960770559e-05 9.4762992916371067e-04 0.0000000000000000e+00  7.4521921946092766e-05 9.4762992915511848e-04 0.0000000000000000e+00  7.4521921954227453e-05 9.4762992915728688e-04 0.0000000000000000e+00  7.4521921947330653e-05 9.4762992915008778e-04 0.0000000000000000e+00  7.4521921953696926e-05 9.4762992916405230e-04 0.0000000000000000e+00  7.4521921956084285e-05 9.4762992915737362e-04 0.0000000000000000e+00  7.4521921957499006e-05 9.4762992916501171e-04 0.0000000000000000e+00  7.4521921947684334e-05 9.4762992914878674e-04 0.0000000000000000e+00  7.4521921953785356e-05 9.4762992915156229e-04 0.0000000000000000e+00  7.4521921956084285e-05 9.4762992914896021e-04 0.0000000000000000e+00  7.4521921957499006e-05 9.4762992916856258e-04 0.0000000000000000e+00  7.4521921958383214e-05 9.4762992915086840e-04 0.0000000000000000e+00  7.4521921959002158e-05 9.4762992917125672e-04 0.0000000000000000e+00  7.4521921949894846e-05 9.4762992916951668e-04 0.0000000000000000e+00  7.4521921959974782e-05 9.4762992914956736e-04 0.0000000000000000e+00  7.4521921953077982e-05 9.4762992915295007e-04 0.0000000000000000e+00  7.4521921952635885e-05 9.4762992916439925e-04 0.0000000000000000e+00  7.4521921959532685e-05 9.4762992917047078e-04 0.0000000000000000e+00  7.4521921954757980e-05 9.4762992915867997e-04 0.0000000000000000e+00  7.4521921961566350e-05 9.4762992915884813e-04 0.0000000000000000e+00  7.4521921949806429e-05 9.4762992914956736e-04 0.0000000000000000e+00  7.4521921958294797e-05 9.4762992917107793e-04 0.0000000000000000e+00  7.4521921963069501e-05 1.1273870338408037e-03 0.0000000000000000e+00  3.3942457393911673e-04 1.7506169154021117e-03 0.0000000000000000e+00  3.3942457393974383e-04 1.7506169154130405e-03 0.0000000000000000e+00  3.3942457392270798e-04 1.7506169153786934e-03 0.0000000000000000e+00  3.3942457392605247e-04 1.7506169154081828e-03 0.0000000000000000e+00  3.3942457391790030e-04 1.7506169153894478e-03 0.0000000000000000e+00  3.3942457392124479e-04 1.7506169153889287e-03 0.0000000000000000e+00  3.3942457392114022e-04 1.7506169153776504e-03 0.0000000000000000e+00  3.3942457393796709e-04 1.7506169153986431e-03 0.0000000000000000e+00  3.3942457393159171e-04 1.7506169153693263e-03 0.0000000000000000e+00  3.3942457393441357e-04 1.7506169153953446e-03 0.0000000000000000e+00  3.3942457393483169e-04 1.7506169153944798e-03 0.0000000000000000e+00  3.3942457395134496e-04 1.7506169154201537e-03 0.0000000000000000e+00  3.3942457393368195e-04 1.7506169153828546e-03 0.0000000000000000e+00  3.3942457393922124e-04 1.7506169154045386e-03 0.0000000000000000e+00  3.3942457393221876e-04 1.7506169153859821e-03 0.0000000000000000e+00  3.3942457393901221e-04 1.7506169154041917e-03 0.0000000000000000e+00  3.3942457393065106e-04 1.7506169153896200e-03 0.0000000000000000e+00  3.3942457392782915e-04 1.7506169153821657e-03 0.0000000000000000e+00  3.3942457392364858e-04 1.7506169153852832e-03 0.0000000000000000e+00  3.3942457393284586e-04 1.7506169154034978e-03 0.0000000000000000e+00  3.3942457393253231e-04 1.7506169154092273e-03 0.0000000000000000e+00  3.3942457392594790e-04 1.7506169153934364e-03 0.0000000000000000e+00  3.3942457393514519e-04 1.7506169154048856e-03 0.0000000000000000e+00  3.3942457392793367e-04 1.7506169154114825e-03 0.0000000000000000e+00  3.3942457392605242e-04 1.7506169153946507e-03 0.0000000000000000e+00  3.3942457392594790e-04 1.7506169153807729e-03 0.0000000000000000e+00  3.3942457393681741e-04 1.7506169153960385e-03 0.0000000000000000e+00  3.3942457393274135e-04 1.7506169154076611e