<?xml version="1.0"?>
<VTKFile type="UnstructuredGrid"  version="0.1"  >
<UnstructuredGrid>
<Piece  NumberOfPoints="2601" NumberOfCells="5000">
<Points>
<DataArray  type="Float64"  NumberOfComponents="3"  format="ascii">0 0 0  0.02 0 0  0.04 0 0  0.06 0 0  0.08 0 0  0.1 0 0  0.12 0 0  0.14 0 0  0.16 0 0  0.18 0 0  0.2 0 0  0.22 0 0  0.24 0 0  0.26 0 0  0.28 0 0  0.3 0 0  0.32 0 0  0.34 0 0  0.36 0 0  0.38 0 0  0.4 0 0  0.42 0 0  0.44 0 0  0.46 0 0  0.48 0 0  0.5 0 0  0.52 0 0  0.54 0 0  0.5600000000000001 0 0  0.58 0 0  0.6 0 0  0.62 0 0  0.64 0 0  0.66 0 0  0.68 0 0  0.7 0 0  0.72 0 0  0.74 0 0  0.76 0 0  0.78 0 0  0.8 0 0  0.82 0 0  0.84 0 0  0.86 0 0  0.88 0 0  0.9 0 0  0.92 0 0  0.9399999999999999 0 0  0.96 0 0  0.98 0 0  1 0 0  0 0.01313563088723984 0  0.02 0.01313563088723984 0  0.04 0.01313563088723984 0  0.06 0.01313563088723984 0  0.08 0.01313563088723984 0  0.1 0.01313563088723984 0  0.12 0.01313563088723984 0  0.14 0.01313563088723984 0  0.16 0.01313563088723984 0  0.18 0.01313563088723984 0  0.2 0.01313563088723984 0  0.22 0.01313563088723984 0  0.24 0.01313563088723984 0  0.26 0.01313563088723984 0  0.28 0.01313563088723984 0  0.3 0.01313563088723984 0  0.32 0.01313563088723984 0  0.34 0.01313563088723984 0  0.36 0.01313563088723984 0  0.38 0.01313563088723984 0  0.4 0.01313563088723984 0  0.42 0.01313563088723984 0  0.44 0.01313563088723984 0  0.46 0.01313563088723984 0  0.48 0.01313563088723984 0  0.5 0.01313563088723984 0  0.52 0.01313563088723984 0  0.54 0.01313563088723984 0  0.5600000000000001 0.01313563088723984 0  0.58 0.01313563088723984 0  0.6 0.01313563088723984 0  0.62 0.01313563088723984 0  0.64 0.01313563088723984 0  0.66 0.01313563088723984 0  0.68 0.01313563088723984 0  0.7 0.01313563088723984 0  0.72 0.01313563088723984 0  0.74 0.01313563088723984 0  0.76 0.01313563088723984 0  0.78 0.01313563088723984 0  0.8 0.01313563088723984 0  0.82 0.01313563088723984 0  0.84 0.01313563088723984 0  0.86 0.01313563088723984 0  0.88 0.01313563088723984 0  0.9 0.01313563088723984 0  0.92 0.01313563088723984 0  0.9399999999999999 0.01313563088723984 0  0.96 0.01313563088723984 0  0.98 0.01313563088723984 0  1 0.01313563088723984 0  0 0.02664639863733726 0  0.02 0.02664639863733726 0  0.04 0.02664639863733726 0  0.06 0.02664639863733726 0  0.08 0.02664639863733726 0  0.1 0.02664639863733726 0  0.12 0.02664639863733726 0  0.14 0.02664639863733726 0  0.16 0.02664639863733726 0  0.18 0.02664639863733726 0  0.2 0.02664639863733726 0  0.22 0.02664639863733726 0  0.24 0.02664639863733726 0  0.26 0.02664639863733726 0  0.28 0.02664639863733726 0  0.3 0.02664639863733726 0  0.32 0.02664639863733726 0  0.34 0.02664639863733726 0  0.36 0.02664639863733726 0  0.38 0.02664639863733726 0  0.4 0.02664639863733726 0  0.42 0.02664639863733726 0  0.44 0.02664639863733726 0  0.46 0.02664639863733726 0  0.48 0.02664639863733726 0  0.5 0.02664639863733726 0  0.52 0.02664639863733726 0  0.54 0.02664639863733726 0  0.5600000000000001 0.02664639863733726 0  0.58 0.02664639863733726 0  0.6 0.02664639863733726 0  0.62 0.02664639863733726 0  0.64 0.02664639863733726 0  0.66 0.02664639863733726 0  0.68 0.02664639863733726 0  0.7 0.02664639863733726 0  0.72 0.02664639863733726 0  0.74 0.02664639863733726 0  0.76 0.02664639863733726 0  0.78 0.02664639863733726 0  0.8 0.02664639863733726 0  0.82 0.02664639863733726 0  0.84 0.02664639863733726 0  0.86 0.02664639863733726 0  0.88 0.02664639863733726 0  0.9 0.02664639863733726 0  0.92 0.02664639863733726 0  0.9399999999999999 0.02664639863733726 0  0.96 0.02664639863733726 0  0.98 0.02664639863733726 0  1 0.02664639863733726 0  0 0.04101652939099896 0  0.02 0.04101652939099896 0  0.04 0.04101652939099896 0  0.06 0.04101652939099896 0  0.08 0.04101652939099896 0  0.1 0.04101652939099896 0  0.12 0.04101652939099896 0  0.14 0.04101652939099896 0  0.16 0.04101652939099896 0  0.18 0.04101652939099896 0  0.2 0.04101652939099896 0  0.22 0.04101652939099896 0  0.24 0.04101652939099896 0  0.26 0.04101652939099896 0  0.28 0.04101652939099896 0  0.3 0.04101652939099896 0  0.32 0.04101652939099896 0  0.34 0.04101652939099896 0  0.36 0.04101652939099896 0  0.38 0.04101652939099896 0  0.4 0.04101652939099896 0  0.42 0.04101652939099896 0  0.44 0.04101652939099896 0  0.46 0.04101652939099896 0  0.48 0.04101652939099896 0  0.5 0.04101652939099896 0  0.52 0.04101652939099896 0  0.54 0.04101652939099896 0  0.5600000000000001 0.04101652939099896 0  0.58 0.04101652939099896 0  0.6 0.04101652939099896 0  0.62 0.04101652939099896 0  0.64 0.04101652939099896 0  0.66 0.04101652939099896 0  0.68 0.04101652939099896 0  0.7 0.04101652939099896 0  0.72 0.04101652939099896 0  0.74 0.04101652939099896 0  0.76 0.04101652939099896 0  0.78 0.04101652939099896 0  0.8 0.04101652939099896 0  0.82 0.04101652939099896 0  0.84 0.04101652939099896 0  0.86 0.04101652939099896 0  0.88 0.04101652939099896 0  0.9 0.04101652939099896 0  0.92 0.04101652939099896 0  0.9399999999999999 0.04101652939099896 0  0.96 0.04101652939099896 0  0.98 0.04101652939099896 0  1 0.04101652939099896 0  0 0.05705811164099547 0  0.02 0.05705811164099547 0  0.04 0.05705811164099547 0  0.06 0.05705811164099547 0  0.08 0.05705811164099547 0  0.1 0.05705811164099547 0  0.12 0.05705811164099547 0  0.14 0.05705811164099547 0  0.16 0.05705811164099547 0  0.18 0.05705811164099547 0  0.2 0.05705811164099547 0  0.22 0.05705811164099547 0  0.24 0.05705811164099547 0  0.26 0.05705811164099547 0  0.28 0.05705811164099547 0  0.3 0.05705811164099547 0  0.32 0.05705811164099547 0  0.34 0.05705811164099547 0  0.36 0.05705811164099547 0  0.38 0.05705811164099547 0  0.4 0.05705811164099547 0  0.42 0.05705811164099547 0  0.44 0.05705811164099547 0  0.46 0.05705811164099547 0  0.48 0.05705811164099547 0  0.5 0.05705811164099547 0  0.52 0.05705811164099547 0  0.54 0.05705811164099547 0  0.5600000000000001 0.05705811164099547 0  0.58 0.05705811164099547 0  0.6 0.05705811164099547 0  0.62 0.05705811164099547 0  0.64 0.05705811164099547 0  0.66 0.05705811164099547 0  0.68 0.05705811164099547 0  0.7 0.05705811164099547 0  0.72 0.05705811164099547 0  0.74 0.05705811164099547 0  0.76 0.05705811164099547 0  0.78 0.05705811164099547 0  0.8 0.05705811164099547 0  0.82 0.05705811164099547 0  0.84 0.05705811164099547 0  0.86 0.05705811164099547 0  0.88 0.05705811164099547 0  0.9 0.05705811164099547 0  0.92 0.05705811164099547 0  0.9399999999999999 0.05705811164099547 0  0.96 0.05705811164099547 0  0.98 0.05705811164099547 0  1 0.05705811164099547 0  0 0.07667714377545 0  0.02 0.07667714377545 0  0.04 0.07667714377545 0  0.06 0.07667714377545 0  0.08 0.07667714377545 0  0.1 0.07667714377545 0  0.12 0.07667714377545 0  0.14 0.07667714377545 0  0.16 0.07667714377545 0  0.18 0.07667714377545 0  0.2 0.07667714377545 0  0.22 0.07667714377545 0  0.24 0.07667714377545 0  0.26 0.07667714377545 0  0.28 0.07667714377545 0  0.3 0.07667714377545 0  0.32 0.07667714377545 0  0.34 0.07667714377545 0  0.36 0.07667714377545 0  0.38 0.07667714377545 0  0.4 0.07667714377545 0  0.42 0.07667714377545 0  0.44 0.07667714377545 0  0.46 0.07667714377545 0  0.48 0.07667714377545 0  0.5 0.07667714377545 0  0.52 0.07667714377545 0  0.54 0.07667714377545 0  0.5600000000000001 0.07667714377545 0  0.58 0.07667714377545 0  0.6 0.07667714377545 0  0.62 0.07667714377545 0  0.64 0.07667714377545 0  0.66 0.07667714377545 0  0.68 0.07667714377545 0  0.7 0.07667714377545 0  0.72 0.07667714377545 0  0.74 0.07667714377545 0  0.76 0.07667714377545 0  0.78 0.07667714377545 0  0.8 0.07667714377545 0  0.82 0.07667714377545 0  0.84 0.07667714377545 0  0.86 0.07667714377545 0  0.88 0.07667714377545 0  0.9 0.07667714377545 0  0.92 0.07667714377545 0  0.9399999999999999 0.07667714377545 0  0.96 0.07667714377545 0  0.98 0.07667714377545 0  1 0.07667714377545 0  0 0.1098730133816912 0  0.02 0.1098730133816912 0  0.04 0.1098730133816912 0  0.06 0.1098730133816912 0  0.08 0.1098730133816912 0  0.1 0.1098730133816912 0  0.12 0.1098730133816912 0  0.14 0.1098730133816912 0  0.16 0.1098730133816912 0  0.18 0.1098730133816912 0  0.2 0.1098730133816912 0  0.22 0.1098730133816912 0  0.24 0.1098730133816912 0  0.26 0.1098730133816912 0  0.28 0.1098730133816912 0  0.3 0.1098730133816912 0  0.32 0.1098730133816912 0  0.34 0.1098730133816912 0  0.36 0.1098730133816912 0  0.38 0.1098730133816912 0  0.4 0.1098730133816912 0  0.42 0.1098730133816912 0  0.44 0.1098730133816912 0  0.46 0.1098730133816912 0  0.48 0.1098730133816912 0  0.5 0.1098730133816912 0  0.52 0.1098730133816912 0  0.54 0.1098730133816912 0  0.5600000000000001 0.1098730133816912 0  0.58 0.1098730133816912 0  0.6 0.1098730133816912 0  0.62 0.1098730133816912 0  0.64 0.1098730133816912 0  0.66 0.1098730133816912 0  0.68 0.1098730133816912 0  0.7 0.1098730133816912 0  0.72 0.1098730133816912 0  0.74 0.1098730133816912 0  0.76 0.1098730133816912 0  0.78 0.1098730133816912 0  0.8 0.1098730133816912 0  0.82 0.1098730133816912 0  0.84 0.1098730133816912 0  0.86 0.1098730133816912 0  0.88 0.1098730133816912 0  0.9 0.1098730133816912 0  0.92 0.1098730133816912 0  0.9399999999999999 0.1098730133816912 0  0.96 0.1098730133816912 0  0.98 0.1098730133816912 0  1 0.1098730133816912 0  0 0.1603283563168221 0  0.02 0.1603283563168221 0  0.04 0.1603283563168221 0  0.06 0.1603283563168221 0  0.08 0.1603283563168221 0  0.1 0.1603283563168221 0  0.12 0.1603283563168221 0  0.14 0.1603283563168221 0  0.16 0.1603283563168221 0  0.18 0.1603283563168221 0  0.2 0.1603283563168221 0  0.22 0.1603283563168221 0  0.24 0.1603283563168221 0  0.26 0.1603283563168221 0  0.28 0.1603283563168221 0  0.3 0.1603283563168221 0  0.32 0.1603283563168221 0  0.34 0.1603283563168221 0  0.36 0.1603283563168221 0  0.38 0.1603283563168221 0  0.4 0.1603283563168221 0  0.42 0.1603283563168221 0  0.44 0.1603283563168221 0  0.46 0.1603283563168221 0  0.48 0.1603283563168221 0  0.5 0.1603283563168221 0  0.52 0.1603283563168221 0  0.54 0.1603283563168221 0  0.5600000000000001 0.1603283563168221 0  0.58 0.1603283563168221 0 
[...]
<PointData  Vectors="u_paraw"> 
<DataArray  type="Float64"  Name="u_paraw"  NumberOfComponents="3" format="ascii">-3.4428915345101978e-05 -3.9255718128392665e-04 0.0000000000000000e+00  -3.4428915340793440e-05 -3.9255718128830682e-04 0.0000000000000000e+00  -3.4428915338251236e-05 -3.9255718129008492e-04 0.0000000000000000e+00  -3.4428915336699506e-05 -3.9255718129408557e-04 0.0000000000000000e+00  -3.4428915341239155e-05 -3.9255718128947771e-04 0.0000000000000000e+00  -3.4428915340463280e-05 -3.9255718128485922e-04 0.0000000000000000e+00  -3.4428915349047335e-05 -3.9255718129369493e-04 0.0000000000000000e+00  -3.4428915333860156e-05 -3.9255718128510859e-04 0.0000000000000000e+00  -3.4428915341222641e-05 -3.9255718129058381e-04 0.0000000000000000e+00  -3.4428915339918522e-05 -3.9255718128753666e-04 0.0000000000000000e+00  -3.4428915342972469e-05 -3.9255718129320758e-04 0.0000000000000000e+00  -3.4428915339918522e-05 -3.9255718128890330e-04 0.0000000000000000e+00  -3.4428915344210553e-05 -3.9255718128970507e-04 0.0000000000000000e+00  -3.4428915329964313e-05 -3.9255718128221323e-04 0.0000000000000000e+00  -3.4428915332357947e-05 -3.9255718128312515e-04 0.0000000000000000e+00  -3.4428915339538842e-05 -3.9255718128742824e-04 0.0000000000000000e+00  -3.4428915340694391e-05 -3.9255718128754750e-04 0.0000000000000000e+00  -3.4428915338267743e-05 -3.9255718128179158e-04 0.0000000000000000e+00  -3.4428915336633471e-05 -3.9255718128310227e-04 0.0000000000000000e+00  -3.4428915346241013e-05 -3.9255718129778237e-04 0.0000000000000000e+00  -3.4428915330723675e-05 -3.9255718128762459e-04 0.0000000000000000e+00  -3.4428915342097552e-05 -3.9255718128817634e-04 0.0000000000000000e+00  -3.4428915339720432e-05 -3.9255718129077843e-04 0.0000000000000000e+00  -3.4428915338234729e-05 -3.9255718129275287e-04 0.0000000000000000e+00  -3.4428915348568613e-05 -3.9255718130289981e-04 0.0000000000000000e+00  -3.4428915333678573e-05 -3.9255718128715719e-04 0.0000000000000000e+00  -3.4428915336815055e-05 -3.9255718128522731e-04 0.0000000000000000e+00  -3.4428915343451192e-05 -3.9255718128819802e-04 0.0000000000000000e+00  -3.4428915346241013e-05 -3.9255718129555108e-04 0.0000000000000000e+00  -3.4428915338944563e-05 -3.9255718129202526e-04 0.0000000000000000e+00  -3.4428915347792744e-05 -3.9255718129879068e-04 0.0000000000000000e+00  -3.4428915333018260e-05 -3.9255718128319985e-04 0.0000000000000000e+00  -3.4428915336484902e-05 -3.9255718129219873e-04 0.0000000000000000e+00  -3.4428915347148938e-05 -3.9255718129572239e-04 0.0000000000000000e+00  -3.4428915336881089e-05 -3.9255718129119259e-04 0.0000000000000000e+00  -3.4428915343220081e-05 -3.9255718129335883e-04 0.0000000000000000e+00  -3.4428915343533734e-05 -3.9255718129717522e-04 0.0000000000000000e+00  -3.4428915336303311e-05 -3.9255718129110369e-04 0.0000000000000000e+00  -3.4428915338597896e-05 -3.9255718128194218e-04 0.0000000000000000e+00  -3.4428915341816920e-05 -3.9255718128876181e-04 0.0000000000000000e+00  -3.4428915337194735e-05 -3.9255718129220090e-04 0.0000000000000000e+00  -3.4428915347165452e-05 -3.9255718129805342e-04 0.0000000000000000e+00  -3.4428915333810636e-05 -3.9255718128404553e-04 0.0000000000000000e+00  -3.4428915342741358e-05 -3.9255718128609467e-04 0.0000000000000000e+00  -3.4428915338284250e-05 -3.9255718128710298e-04 0.0000000000000000e+00  -3.4428915345646728e-05 -3.9255718129894247e-04 0.0000000000000000e+00  -3.4428915333893170e-05 -3.9255718128692083e-04 0.0000000000000000e+00  -3.4428915338465834e-05 -3.9255718128758003e-04 0.0000000000000000e+00  -3.4428915340166141e-05 -3.9255718128246260e-04 0.0000000000000000e+00  -3.4428915334850629e-05 -3.9255718128546584e-04 0.0000000000000000e+00  -3.4428915345101971e-05 -2.6139695207686312e-15 0.0000000000000000e+00  -4.1140689949598060e-05 -2.0924073597652565e-04 0.0000000000000000e+00  -4.1140689949854853e-05 -2.0924073597505113e-04 0.0000000000000000e+00  -4.1140689947062247e-05 -2.0924073596668115e-04 0.0000000000000000e+00  -4.1140689945938790e-05 -2.0924073597333810e-04 0.0000000000000000e+00  -4.1140689940193087e-05 -2.0924073597184190e-04 0.0000000000000000e+00  -4.1140689949212877e-05 -2.0924073597474772e-04 0.0000000000000000e+00  -4.1140689953289443e-05 -2.0924073597687243e-04 0.0000000000000000e+00  -4.1140689941926428e-05 -2.0924073597075786e-04 0.0000000000000000e+00  -4.1140689939101723e-05 -2.0924073596731009e-04 0.0000000000000000e+00  -4.1140689941990627e-05 -2.0924073596945649e-04 0.0000000000000000e+00  -4.1140689949277075e-05 -2.0924073597077954e-04 0.0000000000000000e+00  -4.1140689946195583e-05 -2.0924073597721970e-04 0.0000000000000000e+00  -4.1140689945553606e-05 -2.0924073597242720e-04 0.0000000000000000e+00  -4.1140689946484475e-05 -2.0924073598229344e-04 0.0000000000000000e+00  -4.1140689951427705e-05 -2.0924073598472262e-04 0.0000000000000000e+00  -4.1140689948025221e-05 -2.0924073598652183e-04 0.0000000000000000e+00  -4.1140689942375810e-05 -2.0924073596798197e-04 0.0000000000000000e+00  -4.1140689941862230e-05 -2.0924073597453112e-04 0.0000000000000000e+00  -4.1140689946388178e-05 -2.0924073597058406e-04 0.0000000000000000e+00  -4.1140689948635099e-05 -2.0924073596598704e-04 0.0000000000000000e+00  -4.1140689943659770e-05 -2.0924073599055563e-04 0.0000000000000000e+00  -4.1140689945521507e-05 -2.0924073597427035e-04 0.0000000000000000e+00  -4.1140689945168416e-05 -2.0924073596863250e-04 0.0000000000000000e+00  -4.1140689946580773e-05 -2.0924073597494312e-04 0.0000000000000000e+00  -4.1140689946131385e-05 -2.0924073596969501e-04 0.0000000000000000e+00  -4.1140689939807897e-05 -2.0924073597617854e-04 0.0000000000000000e+00  -4.1140689941958528e-05 -2.0924073597453056e-04 0.0000000000000000e+00  -4.1140689950753630e-05 -2.0924073597338130e-04 0.0000000000000000e+00  -4.1140689957045011e-05 -2.0924073598604595e-04 0.0000000000000000e+00  -4.1140689944622738e-05 -2.0924073598363785e-04 0.0000000000000000e+00  -4.1140689950657332e-05 -2.0924073598756267e-04 0.0000000000000000e+00  -4.1140689945585706e-05 -2.0924073598183808e-04 0.0000000000000000e+00  -4.1140689954669693e-05 -2.0924073599582429e-04 0.0000000000000000e+00  -4.1140689948763495e-05 -2.0924073598565447e-04 0.0000000000000000e+00  -4.1140689939968393e-05 -2.0924073596978292e-04 0.0000000000000000e+00  -4.1140689946067186e-05 -2.0924073596559673e-04 0.0000000000000000e+00  -4.1140689951812889e-05 -2.0924073598318249e-04 0.0000000000000000e+00  -4.1140689938331350e-05 -2.0924073597737116e-04 0.0000000000000000e+00  -4.1140689940160988e-05 -2.0924073597678570e-04 0.0000000000000000e+00  -4.1140689951524003e-05 -2.0924073597374993e-04 0.0000000000000000e+00  -4.1140689950721531e-05 -2.0924073598075504e-04 0.0000000000000000e+00  -4.1140689947896825e-05 -2.0924073597808674e-04 0.0000000000000000e+00  -4.1140689939005425e-05 -2.0924073597843368e-04 0.0000000000000000e+00  -4.1140689944205448e-05 -2.0924073597184173e-04 0.0000000000000000e+00  -4.1140689949630166e-05 -2.0924073598136103e-04 0.0000000000000000e+00  -4.1140689952262277e-05 -2.0924073598517742e-04 0.0000000000000000e+00  -4.1140689946901758e-05 -2.0924073598886487e-04 0.0000000000000000e+00  -4.1140689937304183e-05 -2.0924073596537989e-04 0.0000000000000000e+00  -4.1140689954220312e-05 -2.0924073598751930e-04 0.0000000000000000e+00  -4.1140689944751134e-05 -2.0924073597858547e-04 0.0000000000000000e+00  -4.1140689949598067e-05 -6.4189382387440310e-04 0.0000000000000000e+00  1.0676149189494259e-04 7.5845299291536598e-04 0.0000000000000000e+00  1.0676149189566689e-04 7.5845299291679713e-04 0.0000000000000000e+00  1.0676149189928841e-04 7.5845299292096058e-04 0.0000000000000000e+00  1.0676149189421827e-04 7.5845299291224326e-04 0.0000000000000000e+00  1.0676149189174357e-04 7.5845299292200108e-04 0.0000000000000000e+00  1.0676149189120034e-04 7.5845299290955509e-04 0.0000000000000000e+00  1.0676149189614975e-04 7.5845299292694461e-04 0.0000000000000000e+00  1.0676149189838302e-04 7.5845299292148132e-04 0.0000000000000000e+00  1.0676149189536509e-04 7.5845299290482797e-04 0.0000000000000000e+00  1.0676149189101927e-04 7.5845299290790602e-04 0.0000000000000000e+00  1.0676149189518401e-04 7.5845299291501947e-04 0.0000000000000000e+00  1.0676149189276967e-04 7.5845299290491471e-04 0.0000000000000000e+00  1.0676149190085772e-04 7.5845299291796742e-04 0.0000000000000000e+00  1.0676149188848421e-04 7.5845299290044671e-04 0.0000000000000000e+00  1.0676149190103880e-04 7.5845299291623476e-04 0.0000000000000000e+00  1.0676149189705513e-04 7.5845299291337040e-04 0.0000000000000000e+00  1.0676149190290993e-04 7.5845299291098516e-04 0.0000000000000000e+00  1.0676149189325253e-04 7.5845299290773461e-04 0.0000000000000000e+00  1.0676149189216608e-04 7.5845299290803613e-04 0.0000000000000000e+00  1.0676149189578760e-04 7.5845299291402092e-04 0.0000000000000000e+00  1.0676149188625093e-04 7.5845299291137753e-04 0.0000000000000000e+00  1.0676149190417746e-04 7.5845299290252838e-04 0.0000000000000000e+00  1.0676149189639119e-04 7.5845299291562554e-04 0.0000000000000000e+00  1.0676149188884636e-04 7.5845299290959944e-04 0.0000000000000000e+00  1.0676149189301111e-04 7.5845299290755908e-04 0.0000000000000000e+00  1.0676149188673381e-04 7.5845299290339574e-04 0.0000000000000000e+00  1.0676149189397685e-04 7.5845299290430647e-04 0.0000000000000000e+00  1.0676149188715631e-04 7.5845299290569425e-04 0.0000000000000000e+00  1.0676149188649237e-04 7.5845299290448406e-04 0.0000000000000000e+00  1.0676149188788062e-04 7.5845299290925043e-04 0.0000000000000000e+00  1.0676149189295075e-04 7.5845299290053345e-04 0.0000000000000000e+00  1.0676149189494259e-04 7.5845299291367398e-04 0.0000000000000000e+00  1.0676149188679416e-04 7.5845299290044671e-04 0.0000000000000000e+00  1.0676149190025415e-04 7.5845299291328367e-04 0.0000000000000000e+00  1.0676149189301111e-04 7.5845299291012191e-04 0.0000000000000000e+00  1.0676149188932923e-04 7.5845299290009977e-04 0.0000000000000000e+00  1.0676149189035533e-04 7.5845299290946727e-04 0.0000000000000000e+00  1.0676149189560653e-04 7.5845299290794939e-04 0.0000000000000000e+00  1.0676149189608940e-04 7.5845299289827831e-04 0.0000000000000000e+00  1.0676149189270931e-04 7.5845299291037800e-04 0.0000000000000000e+00  1.0676149188697523e-04 7.5845299290448406e-04 0.0000000000000000e+00  1.0676149189753800e-04 7.5845299291848784e-04 0.0000000000000000e+00  1.0676149189572724e-04 7.5845299291094179e-04 0.0000000000000000e+00  1.0676149189355433e-04 7.5845299291649290e-04 0.0000000000000000e+00  1.0676149188926886e-04 7.5845299290990095e-04 0.0000000000000000e+00  1.0676149188981210e-04 7.5845299291835773e-04 0.0000000000000000e+00  1.0676149189379577e-04 7.5845299290717288e-04 0.0000000000000000e+00  1.0676149189946948e-04 7.5845299290365595e-04 0.0000000000000000e+00  1.0676149189313182e-04 7.5845299291631943e-04 0.0000000000000000e+00  1.0676149188914815e-04 7.5845299290109723e-04 0.0000000000000000e+00  1.0676149189494259e-04 4.0620475182763798e-04 0.0000000000000000e+00  -1.2286804127717321e-04 6.0641409569718585e-05 0.0000000000000000e+00  -1.2286804128052554e-04 6.0641409557662257e-05 0.0000000000000000e+00  -1.2286804127619995e-04 6.0641409565034845e-05 0.0000000000000000e+00  -1.2286804127944413e-04 6.0641409555320367e-05 0.0000000000000000e+00  -1.2286804126884651e-04 6.0641409557141826e-05 0.0000000000000000e+00  -1.2286804127479415e-04 6.0641409565468540e-05 0.0000000000000000e+00  -1.2286804127825459e-04 6.0641409560697969e-05 0.0000000000000000e+00  -1.2286804127868714e-04 6.0641409565121595e-05 0.0000000000000000e+00  -1.2286804127879529e-04 6.0641409559483744e-05 0.0000000000000000e+00  -1.2286804127825459e-04 6.0641409558095884e-05 0.0000000000000000e+00  -1.2286804127544299e-04 6.0641409563473608e-05 0.0000000000000000e+00  -1.2286804127511857e-04 6.0641409563560344e-05 0.0000000000000000e+00  -1.2286804127641625e-04 6.0641409557315258e-05 0.0000000000000000e+00  -1.2286804127717321e-04 6.0641409575182910e-05 0.0000000000000000e+00  -1.2286804127241508e-04 6.0641409553152098e-05 0.0000000000000000e+00  -1.2286804128225576e-04 6.0641409539534342e-05 0.0000000000000000e+00  -1.2286804127392903e-04 6.0641409555840743e-05 0.0000000000000000e+00  -1.2286804128041739e-04 6.0641409557662379e-05 0.0000000000000000e+00  -1.2286804127252323e-04 6.0641409561652067e-05 0.0000000000000000e+00  -1.2286804128333714e-04 6.0641409553065186e-05 0.0000000000000000e+00  -1.2286804127771390e-04 6.0641409549595915e-05 0.0000000000000000e+00  -1.2286804127814647e-04 6.0641409559396926e-05 0.0000000000000000e+00  -1.2286804128182319e-04 6.0641409549075322e-05 0.0000000000000000e+00  -1.2286804127382089e-04 6.0641409557575643e-05 0.0000000000000000e+00  -1.2286804127501044e-04 6.0641409556014215e-05 0.0000000000000000e+00  -1.2286804128182319e-04 6.0641409562953109e-05 0.0000000000000000e+00  -1.2286804127371276e-04 6.0641409573274714e-05 0.0000000000000000e+00  -1.2286804129090688e-04 6.0641409545345666e-05 0.0000000000000000e+00  -1.2286804128312087e-04 6.0641409547254214e-05 0.0000000000000000e+00  -1.2286804127598368e-04 6.0641409557748939e-05 0.0000000000000000e+00  -1.2286804128344529e-04 6.0641409561565331e-05 0.0000000000000000e+00  -1.2286804127230696e-04 6.0641409560351024e-05 0.0000000000000000e+00  -1.2286804128171507e-04 6.0641409556100952e-05 0.0000000000000000e+00  -1.2286804127176627e-04 6.0641409565034777e-05 0.0000000000000000e+00  -1.2286804127868716e-04 6.0641409553846163e-05 0.0000000000000000e+00  -1.2286804128409413e-04 6.0641409548728377e-05 0.0000000000000000e+00  -1.2286804128009297e-04 6.0641409560611233e-05 0.0000000000000000e+00  -1.2286804128009297e-04 6.0641409543784415e-05 0.0000000000000000e+00  -1.2286804127144185e-04 6.0641409556881577e-05 0.0000000000000000e+00  -1.2286804127425345e-04 6.0641409561825539e-05 0.0000000000000000e+00  -1.2286804127825459e-04 6.0641409561999364e-05 0.0000000000000000e+00  -1.2286804127263138e-04 6.0641409557922411e-05 0.0000000000000000e+00  -1.2286804127371276e-04 6.0641409568851169e-05 0.0000000000000000e+00  -1.2286804126938720e-04 6.0641409556708105e-05 0.0000000000000000e+00  -1.2286804127241508e-04 6.0641409558963245e-05 0.0000000000000000e+00  -1.2286804127966043e-04 6.0641409562953109e-05 0.0000000000000000e+00  -1.2286804127847089e-04 6.0641409563907560e-05 0.0000000000000000e+00  -1.2286804127425345e-04 6.0641409562432692e-05 0.0000000000000000e+00  -1.2286804126430465e-04 6.0641409572754297e-05 0.0000000000000000e+00  -1.2286804127565926e-04 6.0641409569718531e-05 0.0000000000000000e+00  -1.2286804127717321e-04 6.6719791602795381e-04 0.0000000000000000e+00  9.0057044664551919e-05 1.2542227190194541e-04 0.0000000000000000e+00  9.0057044665259293e-05 1.2542227190099131e-04 0.0000000000000000e+00  9.0057044663137211e-05 1.2542227190021074e-04 0.0000000000000000e+00  9.0057044664109822e-05 1.2542227190107802e-04 0.0000000000000000e+00  9.0057044662164573e-05 1.2542227190012392e-04 0.0000000000000000e+00  9.0057044667558222e-05 1.2542227191747127e-04 0.0000000000000000e+00  9.0057044655975134e-05 1.2542227189682789e-04 0.0000000000000000e+00  9.0057044654029886e-05 1.2542227190576188e-04 0.0000000000000000e+00  9.0057044658627757e-05 1.2542227190515473e-04 0.0000000000000000e+00  9.0057044658008813e-05 1.2542227190211880e-04 0.0000000000000000e+00  9.0057044664286669e-05 1.2542227190862418e-04 0.0000000000000000e+00  9.0057044652084637e-05 1.2542227189596070e-04 0.0000000000000000e+00  9.0057044652968845e-05 1.2542227189969019e-04 0.0000000000000000e+00  9.0057044651642540e-05 1.2542227189448602e-04 0.0000000000000000e+00  9.0057044658539326e-05 1.2542227189665475e-04 0.0000000000000000e+00  9.0057044665878223e-05 1.2542227190714950e-04 0.0000000000000000e+00  9.0057044660926685e-05 1.2542227189257782e-04 0.0000000000000000e+00  9.0057044662960351e-05 1.2542227189812926e-04 0.0000000000000000e+00  9.0057044667469791e-05 1.2542227190801686e-04 0.0000000000000000e+00  9.0057044655179357e-05 1.2542227189387886e-04 0.0000000000000000e+00  9.0057044659423534e-05 1.2542227189439961e-04 0.0000000000000000e+00  9.0057044660396158e-05 1.2542227191391492e-04 0.0000000000000000e+00  9.0057044657743549e-05 1.2542227188962879e-04 0.0000000000000000e+00  9.0057044656859342e-05 1.2542227188910870e-04 0.0000000000000000e+00  9.0057044657213022e-05 1.2542227189231761e-04 0.0000000000000000e+00  9.0057044665436126e-05 1.2542227191304756e-04 0.0000000000000000e+00  9.0057044661191949e-05 1.2542227188615934e-04 0.0000000000000000e+00  9.0057044668530846e-05 1.2542227191113936e-04 0.0000000000000000e+00  9.0057044660042478e-05 1.2542227190090520e-04 0.0000000000000000e+00  9.0057044662252990e-05 1.2542227189838915e-04 0.0000000000000000e+00  9.0057044664109822e-05 1.2542227190428721e-04 0.0000000000000000e+00  9.0057044652968845e-05 1.2542227188156233e-04 0.0000000000000000e+00  9.0057044670122414e-05 1.2542227191486902e-04 0.0000000000000000e+00  9.0057044659954061e-05 1.2542227188208274e-04 0.0000000000000000e+00  9.0057044661899310e-05 1.2542227190012457e-04 0.0000000000000000e+00  9.0057044664905599e-05 1.2542227190307290e-04 0.0000000000000000e+00  9.0057044656240398e-05 1.2542227189526664e-04 0.0000000000000000e+00  9.0057044656770925e-05 1.2542227188615934e-04 0.0000000000000000e+00  9.0057044666320334e-05 1.2542227190853728e-04 0.0000000000000000e+00  9.0057044669503470e-05 1.2542227190688929e-04 0.0000000000000000e+00  9.0057044662518254e-05 1.2542227188806825e-04 0.0000000000000000e+00  9.0057044664375085e-05 1.2542227189899630e-04 0.0000000000000000e+00  9.0057044662518254e-05 1.2542227190211880e-04 0.0000000000000000e+00  9.0057044661899310e-05 1.2542227189335845e-04 0.0000000000000000e+00  9.0057044668000319e-05 1.2542227190437394e-04 0.0000000000000000e+00  9.0057044669326623e-05 1.2542227190281269e-04 0.0000000000000000e+00  9.0057044661634046e-05 1.2542227190732368e-04 0.0000000000000000e+00  9.0057044659335117e-05 1.2542227189526664e-04 0.0000000000000000e+00  9.0057044671006621e-05 1.2542227189465949e-04 0.0000000000000000e+00  9.0057044662783517e-05 1.2542227189864935e-04 0.0000000000000000e+00  9.0057044664551919e-05 4.9505376963253650e-05 0.0000000000000000e+00  8.4191131381606079e-04 3.7543075553682359e-03 0.0000000000000000e+00  8.4191131381647886e-04 3.7543075553893995e-03 0.0000000000000000e+00  8.4191131379902494e-04 3.7543075553704919e-03 0.0000000000000000e+00  8.4191131380142873e-04 3.7543075553684085e-03 0.0000000000000000e+00  8.4191131379808429e-04 3.7543075553781230e-03 0.0000000000000000e+00  8.4191131380257841e-04 3.7543075553756974e-03 0.0000000000000000e+00  8.4191131381031235e-04 3.7543075553690998e-03 0.0000000000000000e+00  8.4191131381292539e-04 3.7543075553760443e-03 0.0000000000000000e+00  8.4191131380926740e-04 3.7543075553512378e-03 0.0000000000000000e+00  8.4191131381595617e-04 3.7543075553609466e-03 0.0000000000000000e+00  8.4191131381888265e-04 3.7543075553947793e-03 0.0000000000000000e+00  8.4191131381700145e-04 3.7543075553791668e-03 0.0000000000000000e+00  8.4191131382191353e-04 3.7543075553685794e-03 0.0000000000000000e+00  8.4191131380978977e-04 3.7543075553685794e-03 0.0000000000000000e+00  8.4191131380675888e-04 3.7543075553647734e-03 0.0000000000000000e+00  8.4191131381020784e-04 3.7543075553729162e-03 0.0000000000000000e+00  8.4191131380884922e-04 3.7543075553784673e-03 0.0000000000000000e+00  8.4191131380477317e-04 3.7543075553704980e-03 0.0000000000000000e+00  8.4191131380121958e-04 3.7543075553520995e-03 0.0000000000000000e+00  8.4191131380843116e-04 3.7543075553904369e-03 0.0000000000000000e+00  8.4191131380717695e-04 3.7543075553642530e-03 0.0000000000000000e+00  8.4191131380999880e-04 3.7543075553644160e-03 0.0000000000000000e+00  8.4191131380540027e-04 3.7543075553692733e-03 0.0000000000000000e+00  8.4191131380445961e-04 3.7543075553713653e-03 0.0000000000000000e+00  8.4191131380895374e-04 3.7543075553743040e-03 0.0000000000000000e+00  8.4191131380759502e-04 3.754307