<?xml version="1.0"?>
<VTKFile type="UnstructuredGrid"  version="0.1"  >
<UnstructuredGrid>
<Piece  NumberOfPoints="2601" NumberOfCells="5000">
<Points>
<DataArray  type="Float64"  NumberOfComponents="3"  format="ascii">0 0 0  0.02 0 0  0.04 0 0  0.06 0 0  0.08 0 0  0.1 0 0  0.12 0 0  0.14 0 0  0.16 0 0  0.18 0 0  0.2 0 0  0.22 0 0  0.24 0 0  0.26 0 0  0.28 0 0  0.3 0 0  0.32 0 0  0.34 0 0  0.36 0 0  0.38 0 0  0.4 0 0  0.42 0 0  0.44 0 0  0.46 0 0  0.48 0 0  0.5 0 0  0.52 0 0  0.54 0 0  0.5600000000000001 0 0  0.58 0 0  0.6 0 0  0.62 0 0  0.64 0 0  0.66 0 0  0.68 0 0  0.7 0 0  0.72 0 0  0.74 0 0  0.76 0 0  0.78 0 0  0.8 0 0  0.82 0 0  0.84 0 0  0.86 0 0  0.88 0 0  0.9 0 0  0.92 0 0  0.9399999999999999 0 0  0.96 0 0  0.98 0 0  1 0 0  0 0.01313563088723984 0  0.02 0.01313563088723984 0  0.04 0.01313563088723984 0  0.06 0.01313563088723984 0  0.08 0.01313563088723984 0  0.1 0.01313563088723984 0  0.12 0.01313563088723984 0  0.14 0.01313563088723984 0  0.16 0.01313563088723984 0  0.18 0.01313563088723984 0  0.2 0.01313563088723984 0  0.22 0.01313563088723984 0  0.24 0.01313563088723984 0  0.26 0.01313563088723984 0  0.28 0.01313563088723984 0  0.3 0.01313563088723984 0  0.32 0.01313563088723984 0  0.34 0.01313563088723984 0  0.36 0.01313563088723984 0  0.38 0.01313563088723984 0  0.4 0.01313563088723984 0  0.42 0.01313563088723984 0  0.44 0.01313563088723984 0  0.46 0.01313563088723984 0  0.48 0.01313563088723984 0  0.5 0.01313563088723984 0  0.52 0.01313563088723984 0  0.54 0.01313563088723984 0  0.5600000000000001 0.01313563088723984 0  0.58 0.01313563088723984 0  0.6 0.01313563088723984 0  0.62 0.01313563088723984 0  0.64 0.01313563088723984 0  0.66 0.01313563088723984 0  0.68 0.01313563088723984 0  0.7 0.01313563088723984 0  0.72 0.01313563088723984 0  0.74 0.01313563088723984 0  0.76 0.01313563088723984 0  0.78 0.01313563088723984 0  0.8 0.01313563088723984 0  0.82 0.01313563088723984 0  0.84 0.01313563088723984 0  0.86 0.01313563088723984 0  0.88 0.01313563088723984 0  0.9 0.01313563088723984 0  0.92 0.01313563088723984 0  0.9399999999999999 0.01313563088723984 0  0.96 0.01313563088723984 0  0.98 0.01313563088723984 0  1 0.01313563088723984 0  0 0.02664639863733726 0  0.02 0.02664639863733726 0  0.04 0.02664639863733726 0  0.06 0.02664639863733726 0  0.08 0.02664639863733726 0  0.1 0.02664639863733726 0  0.12 0.02664639863733726 0  0.14 0.02664639863733726 0  0.16 0.02664639863733726 0  0.18 0.02664639863733726 0  0.2 0.02664639863733726 0  0.22 0.02664639863733726 0  0.24 0.02664639863733726 0  0.26 0.02664639863733726 0  0.28 0.02664639863733726 0  0.3 0.02664639863733726 0  0.32 0.02664639863733726 0  0.34 0.02664639863733726 0  0.36 0.02664639863733726 0  0.38 0.02664639863733726 0  0.4 0.02664639863733726 0  0.42 0.02664639863733726 0  0.44 0.02664639863733726 0  0.46 0.02664639863733726 0  0.48 0.02664639863733726 0  0.5 0.02664639863733726 0  0.52 0.02664639863733726 0  0.54 0.02664639863733726 0  0.5600000000000001 0.02664639863733726 0  0.58 0.02664639863733726 0  0.6 0.02664639863733726 0  0.62 0.02664639863733726 0  0.64 0.02664639863733726 0  0.66 0.02664639863733726 0  0.68 0.02664639863733726 0  0.7 0.02664639863733726 0  0.72 0.02664639863733726 0  0.74 0.02664639863733726 0  0.76 0.02664639863733726 0  0.78 0.02664639863733726 0  0.8 0.02664639863733726 0  0.82 0.02664639863733726 0  0.84 0.02664639863733726 0  0.86 0.02664639863733726 0  0.88 0.02664639863733726 0  0.9 0.02664639863733726 0  0.92 0.02664639863733726 0  0.9399999999999999 0.02664639863733726 0  0.96 0.02664639863733726 0  0.98 0.02664639863733726 0  1 0.02664639863733726 0  0 0.04101652939099896 0  0.02 0.04101652939099896 0  0.04 0.04101652939099896 0  0.06 0.04101652939099896 0  0.08 0.04101652939099896 0  0.1 0.04101652939099896 0  0.12 0.04101652939099896 0  0.14 0.04101652939099896 0  0.16 0.04101652939099896 0  0.18 0.04101652939099896 0  0.2 0.04101652939099896 0  0.22 0.04101652939099896 0  0.24 0.04101652939099896 0  0.26 0.04101652939099896 0  0.28 0.04101652939099896 0  0.3 0.04101652939099896 0  0.32 0.04101652939099896 0  0.34 0.04101652939099896 0  0.36 0.04101652939099896 0  0.38 0.04101652939099896 0  0.4 0.04101652939099896 0  0.42 0.04101652939099896 0  0.44 0.04101652939099896 0  0.46 0.04101652939099896 0  0.48 0.04101652939099896 0  0.5 0.04101652939099896 0  0.52 0.04101652939099896 0  0.54 0.04101652939099896 0  0.5600000000000001 0.04101652939099896 0  0.58 0.04101652939099896 0  0.6 0.04101652939099896 0  0.62 0.04101652939099896 0  0.64 0.04101652939099896 0  0.66 0.04101652939099896 0  0.68 0.04101652939099896 0  0.7 0.04101652939099896 0  0.72 0.04101652939099896 0  0.74 0.04101652939099896 0  0.76 0.04101652939099896 0  0.78 0.04101652939099896 0  0.8 0.04101652939099896 0  0.82 0.04101652939099896 0  0.84 0.04101652939099896 0  0.86 0.04101652939099896 0  0.88 0.04101652939099896 0  0.9 0.04101652939099896 0  0.92 0.04101652939099896 0  0.9399999999999999 0.04101652939099896 0  0.96 0.04101652939099896 0  0.98 0.04101652939099896 0  1 0.04101652939099896 0  0 0.05705811164099547 0  0.02 0.05705811164099547 0  0.04 0.05705811164099547 0  0.06 0.05705811164099547 0  0.08 0.05705811164099547 0  0.1 0.05705811164099547 0  0.12 0.05705811164099547 0  0.14 0.05705811164099547 0  0.16 0.05705811164099547 0  0.18 0.05705811164099547 0  0.2 0.05705811164099547 0  0.22 0.05705811164099547 0  0.24 0.05705811164099547 0  0.26 0.05705811164099547 0  0.28 0.05705811164099547 0  0.3 0.05705811164099547 0  0.32 0.05705811164099547 0  0.34 0.05705811164099547 0  0.36 0.05705811164099547 0  0.38 0.05705811164099547 0  0.4 0.05705811164099547 0  0.42 0.05705811164099547 0  0.44 0.05705811164099547 0  0.46 0.05705811164099547 0  0.48 0.05705811164099547 0  0.5 0.05705811164099547 0  0.52 0.05705811164099547 0  0.54 0.05705811164099547 0  0.5600000000000001 0.05705811164099547 0  0.58 0.05705811164099547 0  0.6 0.05705811164099547 0  0.62 0.05705811164099547 0  0.64 0.05705811164099547 0  0.66 0.05705811164099547 0  0.68 0.05705811164099547 0  0.7 0.05705811164099547 0  0.72 0.05705811164099547 0  0.74 0.05705811164099547 0  0.76 0.05705811164099547 0  0.78 0.05705811164099547 0  0.8 0.05705811164099547 0  0.82 0.05705811164099547 0  0.84 0.05705811164099547 0  0.86 0.05705811164099547 0  0.88 0.05705811164099547 0  0.9 0.05705811164099547 0  0.92 0.05705811164099547 0  0.9399999999999999 0.05705811164099547 0  0.96 0.05705811164099547 0  0.98 0.05705811164099547 0  1 0.05705811164099547 0  0 0.07667714377545 0  0.02 0.07667714377545 0  0.04 0.07667714377545 0  0.06 0.07667714377545 0  0.08 0.07667714377545 0  0.1 0.07667714377545 0  0.12 0.07667714377545 0  0.14 0.07667714377545 0  0.16 0.07667714377545 0  0.18 0.07667714377545 0  0.2 0.07667714377545 0  0.22 0.07667714377545 0  0.24 0.07667714377545 0  0.26 0.07667714377545 0  0.28 0.07667714377545 0  0.3 0.07667714377545 0  0.32 0.07667714377545 0  0.34 0.07667714377545 0  0.36 0.07667714377545 0  0.38 0.07667714377545 0  0.4 0.07667714377545 0  0.42 0.07667714377545 0  0.44 0.07667714377545 0  0.46 0.07667714377545 0  0.48 0.07667714377545 0  0.5 0.07667714377545 0  0.52 0.07667714377545 0  0.54 0.07667714377545 0  0.5600000000000001 0.07667714377545 0  0.58 0.07667714377545 0  0.6 0.07667714377545 0  0.62 0.07667714377545 0  0.64 0.07667714377545 0  0.66 0.07667714377545 0  0.68 0.07667714377545 0  0.7 0.07667714377545 0  0.72 0.07667714377545 0  0.74 0.07667714377545 0  0.76 0.07667714377545 0  0.78 0.07667714377545 0  0.8 0.07667714377545 0  0.82 0.07667714377545 0  0.84 0.07667714377545 0  0.86 0.07667714377545 0  0.88 0.07667714377545 0  0.9 0.07667714377545 0  0.92 0.07667714377545 0  0.9399999999999999 0.07667714377545 0  0.96 0.07667714377545 0  0.98 0.07667714377545 0  1 0.07667714377545 0  0 0.1098730133816912 0  0.02 0.1098730133816912 0  0.04 0.1098730133816912 0  0.06 0.1098730133816912 0  0.08 0.1098730133816912 0  0.1 0.1098730133816912 0  0.12 0.1098730133816912 0  0.14 0.1098730133816912 0  0.16 0.1098730133816912 0  0.18 0.1098730133816912 0  0.2 0.1098730133816912 0  0.22 0.1098730133816912 0  0.24 0.1098730133816912 0  0.26 0.1098730133816912 0  0.28 0.1098730133816912 0  0.3 0.1098730133816912 0  0.32 0.1098730133816912 0  0.34 0.1098730133816912 0  0.36 0.1098730133816912 0  0.38 0.1098730133816912 0  0.4 0.1098730133816912 0  0.42 0.1098730133816912 0  0.44 0.1098730133816912 0  0.46 0.1098730133816912 0  0.48 0.1098730133816912 0  0.5 0.1098730133816912 0  0.52 0.1098730133816912 0  0.54 0.1098730133816912 0  0.5600000000000001 0.1098730133816912 0  0.58 0.1098730133816912 0  0.6 0.1098730133816912 0  0.62 0.1098730133816912 0  0.64 0.1098730133816912 0  0.66 0.1098730133816912 0  0.68 0.1098730133816912 0  0.7 0.1098730133816912 0  0.72 0.1098730133816912 0  0.74 0.1098730133816912 0  0.76 0.1098730133816912 0  0.78 0.1098730133816912 0  0.8 0.1098730133816912 0  0.82 0.1098730133816912 0  0.84 0.1098730133816912 0  0.86 0.1098730133816912 0  0.88 0.1098730133816912 0  0.9 0.1098730133816912 0  0.92 0.1098730133816912 0  0.9399999999999999 0.1098730133816912 0  0.96 0.1098730133816912 0  0.98 0.1098730133816912 0  1 0.1098730133816912 0  0 0.1603283563168221 0  0.02 0.1603283563168221 0  0.04 0.1603283563168221 0  0.06 0.1603283563168221 0  0.08 0.1603283563168221 0  0.1 0.1603283563168221 0  0.12 0.1603283563168221 0  0.14 0.1603283563168221 0  0.16 0.1603283563168221 0  0.18 0.1603283563168221 0  0.2 0.1603283563168221 0  0.22 0.1603283563168221 0  0.24 0.1603283563168221 0  0.26 0.1603283563168221 0  0.28 0.1603283563168221 0  0.3 0.1603283563168221 0  0.32 0.1603283563168221 0  0.34 0.1603283563168221 0  0.36 0.1603283563168221 0  0.38 0.1603283563168221 0  0.4 0.1603283563168221 0  0.42 0.1603283563168221 0  0.44 0.1603283563168221 0  0.46 0.1603283563168221 0  0.48 0.1603283563168221 0  0.5 0.1603283563168221 0  0.52 0.1603283563168221 0  0.54 0.1603283563168221 0  0.5600000000000001 0.1603283563168221 0  0.58 0.1603283563168221 0 
[...]
<PointData  Vectors="u_paraw"> 
<DataArray  type="Float64"  Name="u_paraw"  NumberOfComponents="3" format="ascii">7.1481751056326021e-05 5.8385296269154383e-05 0.0000000000000000e+00  7.1481751063028192e-05 5.8385296278380943e-05 0.0000000000000000e+00  7.1481751055814264e-05 5.8385296276190855e-05 0.0000000000000000e+00  7.1481751055962853e-05 5.8385296271821513e-05 0.0000000000000000e+00  7.1481751060106308e-05 5.8385296264535675e-05 0.0000000000000000e+00  7.1481751056738709e-05 5.8385296273469534e-05 0.0000000000000000e+00  7.1481751061625018e-05 5.8385296271452830e-05 0.0000000000000000e+00  7.1481751057679647e-05 5.8385296268829149e-05 0.0000000000000000e+00  7.1481751061377400e-05 5.8385296278489390e-05 0.0000000000000000e+00  7.1481751053288574e-05 5.8385296265858347e-05 0.0000000000000000e+00  7.1481751058125362e-05 5.8385296274889839e-05 0.0000000000000000e+00  7.1481751059479002e-05 5.8385296274911523e-05 0.0000000000000000e+00  7.1481751062516435e-05 5.8385296274564490e-05 0.0000000000000000e+00  7.1481751060799628e-05 5.8385296276873841e-05 0.0000000000000000e+00  7.1481751059611072e-05 5.8385296278554531e-05 0.0000000000000000e+00  7.1481751061856129e-05 5.8385296274163336e-05 0.0000000000000000e+00  7.1481751064612930e-05 5.8385296286469030e-05 0.0000000000000000e+00  7.1481751057498070e-05 5.8385296273090152e-05 0.0000000000000000e+00  7.1481751062483421e-05 5.8385296276711211e-05 0.0000000000000000e+00  7.1481751060073281e-05 5.8385296274217546e-05 0.0000000000000000e+00  7.1481751059297412e-05 5.8385296270726591e-05 0.0000000000000000e+00  7.1481751057828223e-05 5.8385296272515348e-05 0.0000000000000000e+00  7.1481751062235803e-05 5.8385296271680513e-05 0.0000000000000000e+00  7.1481751059726621e-05 5.8385296279400208e-05 0.0000000000000000e+00  7.1481751063936103e-05 5.8385296277676151e-05 0.0000000000000000e+00  7.1481751052496198e-05 5.8385296268503800e-05 0.0000000000000000e+00  7.1481751063787541e-05 5.8385296270932413e-05 0.0000000000000000e+00  7.1481751057366001e-05 5.8385296271398620e-05 0.0000000000000000e+00  7.1481751055120943e-05 5.8385296273025255e-05 0.0000000000000000e+00  7.1481751053338095e-05 5.8385296263288788e-05 0.0000000000000000e+00  7.1481751056226965e-05 5.8385296270455364e-05 0.0000000000000000e+00  7.1481751056078389e-05 5.8385296267734017e-05 0.0000000000000000e+00  7.1481751060601531e-05 5.8385296275171644e-05 0.0000000000000000e+00  7.1481751057085369e-05 5.8385296267517176e-05 0.0000000000000000e+00  7.1481751059264398e-05 5.8385296276028495e-05 0.0000000000000000e+00  7.1481751063308811e-05 5.8385296283487474e-05 0.0000000000000000e+00  7.1481751059264398e-05 5.8385296274423544e-05 0.0000000000000000e+00  7.1481751058604092e-05 5.8385296275410168e-05 0.0000000000000000e+00  7.1481751055137450e-05 5.8385296269425372e-05 0.0000000000000000e+00  7.1481751063374839e-05 5.8385296275724587e-05 0.0000000000000000e+00  7.1481751053288574e-05 5.8385296274662401e-05 0.0000000000000000e+00  7.1481751064530395e-05 5.8385296282186432e-05 0.0000000000000000e+00  7.1481751059495509e-05 5.8385296273729655e-05 0.0000000000000000e+00  7.1481751064051666e-05 5.8385296273068291e-05 0.0000000000000000e+00  7.1481751055797757e-05 5.8385296266931707e-05 0.0000000000000000e+00  7.1481751058736148e-05 5.8385296270802309e-05 0.0000000000000000e+00  7.1481751060040267e-05 5.8385296275789971e-05 0.0000000000000000e+00  7.1481751067105606e-05 5.8385296282078011e-05 0.0000000000000000e+00  7.1481751056326007e-05 5.8385296273621234e-05 0.0000000000000000e+00  7.1481751053156518e-05 5.8385296273469446e-05 0.0000000000000000e+00  7.1481751056326007e-05 -5.5379526852663221e-15 0.0000000000000000e+00  -7.2495020355701557e-05 -2.1220968135374563e-04 0.0000000000000000e+00  -7.2495020343696565e-05 -2.1220968134244824e-04 0.0000000000000000e+00  -7.2495020352234874e-05 -2.1220968134702363e-04 0.0000000000000000e+00  -7.2495020350886723e-05 -2.1220968133939079e-04 0.0000000000000000e+00  -7.2495020358365780e-05 -2.1220968135175070e-04 0.0000000000000000e+00  -7.2495020354225022e-05 -2.1220968135253146e-04 0.0000000000000000e+00  -7.2495020345526211e-05 -2.1220968135090488e-04 0.0000000000000000e+00  -7.2495020351913896e-05 -2.1220968134936559e-04 0.0000000000000000e+00  -7.2495020353262048e-05 -2.1220968135584912e-04 0.0000000000000000e+00  -7.2495020352523774e-05 -2.1220968135981702e-04 0.0000000000000000e+00  -7.2495020348704007e-05 -2.1220968135699837e-04 0.0000000000000000e+00  -7.2495020354160824e-05 -2.1220968135745373e-04 0.0000000000000000e+00  -7.2495020357531202e-05 -2.1220968136771002e-04 0.0000000000000000e+00  -7.2495020354834900e-05 -2.1220968135528506e-04 0.0000000000000000e+00  -7.2495020348960801e-05 -2.1220968134990796e-04 0.0000000000000000e+00  -7.2495020355862059e-05 -2.1220968135866777e-04 0.0000000000000000e+00  -7.2495020346521278e-05 -2.1220968135335518e-04 0.0000000000000000e+00  -7.2495020353133651e-05 -2.1220968134502905e-04 0.0000000000000000e+00  -7.2495020347805231e-05 -2.1220968134663313e-04 0.0000000000000000e+00  -7.2495020354610199e-05 -2.1220968136176859e-04 0.0000000000000000e+00  -7.2495020351881790e-05 -2.1220968134951765e-04 0.0000000000000000e+00  -7.2495020358558362e-05 -2.1220968136452246e-04 0.0000000000000000e+00  -7.2495020352363285e-05 -2.1220968136161680e-04 0.0000000000000000e+00  -7.2495020354642305e-05 -2.1220968135836474e-04 0.0000000000000000e+00  -7.2495020349057091e-05 -2.1220968135361539e-04 0.0000000000000000e+00  -7.2495020355958363e-05 -2.1220968135578379e-04 0.0000000000000000e+00  -7.2495020351239821e-05 -2.1220968135487306e-04 0.0000000000000000e+00  -7.2495020357049721e-05 -2.1220968135942671e-04 0.0000000000000000e+00  -7.2495020357146012e-05 -2.1220968135845207e-04 0.0000000000000000e+00  -7.2495020355220076e-05 -2.1220968136064102e-04 0.0000000000000000e+00  -7.2495020351817592e-05 -2.1220968136109638e-04 0.0000000000000000e+00  -7.2495020354513908e-05 -2.1220968135576211e-04 0.0000000000000000e+00  -7.2495020349410175e-05 -2.1220968135745346e-04 0.0000000000000000e+00  -7.2495020356086747e-05 -2.1220968136244079e-04 0.0000000000000000e+00  -7.2495020356054654e-05 -2.1220968136127099e-04 0.0000000000000000e+00  -7.2495020354096626e-05 -2.1220968135717157e-04 0.0000000000000000e+00  -7.2495020352170690e-05 -2.1220968136196374e-04 0.0000000000000000e+00  -7.2495020357242316e-05 -2.1220968135495980e-04 0.0000000000000000e+00  -7.2495020355508975e-05 -2.1220968135719326e-04 0.0000000000000000e+00  -7.2495020346039797e-05 -2.1220968135311666e-04 0.0000000000000000e+00  -7.2495020354578106e-05 -2.1220968135305274e-04 0.0000000000000000e+00  -7.2495020350854631e-05 -2.1220968135977366e-04 0.0000000000000000e+00  -7.2495020354866992e-05 -2.1220968135031941e-04 0.0000000000000000e+00  -7.2495020348479306e-05 -2.1220968134938700e-04 0.0000000000000000e+00  -7.2495020359681825e-05 -2.1220968135701978e-04 0.0000000000000000e+00  -7.2495020353486735e-05 -2.1220968136666918e-04 0.0000000000000000e+00  -7.2495020345237325e-05 -2.1220968134878098e-04 0.0000000000000000e+00  -7.2495020349185488e-05 -2.1220968135825577e-04 0.0000000000000000e+00  -7.2495020351047226e-05 -2.1220968134236137e-04 0.0000000000000000e+00  -7.2495020359264543e-05 -2.1220968135292150e-04 0.0000000000000000e+00  -7.2495020355701570e-05 -1.6238651353023641e-04 0.0000000000000000e+00  1.2486110468160693e-05 1.0448175952596818e-04 0.0000000000000000e+00  1.2486110464659891e-05 1.0448175952397325e-04 0.0000000000000000e+00  1.2486110464297738e-05 1.0448175953099889e-04 0.0000000000000000e+00  1.2486110464659891e-05 1.0448175953841479e-04 0.0000000000000000e+00  1.2486110454097127e-05 1.0448175952657531e-04 0.0000000000000000e+00  1.2486110458503308e-05 1.0448175953364438e-04 0.0000000000000000e+00  1.2486110474377634e-05 1.0448175953386108e-04 0.0000000000000000e+00  1.2486110463694153e-05 1.0448175953602963e-04 0.0000000000000000e+00  1.2486110456994343e-05 1.0448175953251681e-04 0.0000000000000000e+00  1.2486110472084006e-05 1.0448175953260340e-04 0.0000000000000000e+00  1.2486110456813266e-05 1.0448175952284573e-04 0.0000000000000000e+00  1.2486110468945356e-05 1.0448175952744275e-04 0.0000000000000000e+00  1.2486110459951916e-05 1.0448175951512606e-04 0.0000000000000000e+00  1.2486110471963288e-05 1.0448175953581264e-04 0.0000000000000000e+00  1.2486110463392359e-05 1.0448175951690444e-04 0.0000000000000000e+00  1.2486110460615861e-05 1.0448175951235051e-04 0.0000000000000000e+00  1.2486110467436389e-05 1.0448175952518746e-04 0.0000000000000000e+00  1.2486110460978013e-05 1.0448175952549132e-04 0.0000000000000000e+00  1.2486110464840968e-05 1.0448175953190951e-04 0.0000000000000000e+00  1.2486110455002507e-05 1.0448175951855214e-04 0.0000000000000000e+00  1.2486110469730018e-05 1.0448175952267239e-04 0.0000000000000000e+00  1.2486110454036768e-05 1.0448175952501399e-04 0.0000000000000000e+00  1.2486110462064468e-05 1.0448175952249864e-04 0.0000000000000000e+00  1.2486110473472254e-05 1.0448175952861382e-04 0.0000000000000000e+00  1.2486110463332001e-05 1.0448175953000132e-04 0.0000000000000000e+00  1.2486110465987781e-05 1.0448175953238656e-04 0.0000000000000000e+00  1.2486110459891558e-05 1.0448175951928940e-04 0.0000000000000000e+00  1.2486110465142761e-05 1.0448175952804975e-04 0.0000000000000000e+00  1.2486110452588160e-05 1.0448175951855272e-04 0.0000000000000000e+00  1.2486110462004110e-05 1.0448175951885572e-04 0.0000000000000000e+00  1.2486110465504913e-05 1.0448175952887375e-04 0.0000000000000000e+00  1.2486110461641958e-05 1.0448175951516943e-04 0.0000000000000000e+00  1.2486110463995946e-05 1.0448175952210832e-04 0.0000000000000000e+00  1.2486110456028603e-05 1.0448175952158791e-04 0.0000000000000000e+00  1.2486110462728413e-05 1.0448175952219564e-04 0.0000000000000000e+00  1.2486110461823035e-05 1.0448175953282024e-04 0.0000000000000000e+00  1.2486110459469048e-05 1.0448175951894245e-04 0.0000000000000000e+00  1.2486110465203118e-05 1.0448175951703426e-04 0.0000000000000000e+00  1.2486110466289575e-05 1.0448175953295035e-04 0.0000000000000000e+00  1.2486110467376031e-05 1.0448175952531756e-04 0.0000000000000000e+00  1.2486110462788773e-05 1.0448175952471099e-04 0.0000000000000000e+00  1.2486110460676220e-05 1.0448175953073857e-04 0.0000000000000000e+00  1.2486110469850736e-05 1.0448175953542233e-04 0.0000000000000000e+00  1.2486110462788773e-05 1.0448175952306242e-04 0.0000000000000000e+00  1.2486110459408688e-05 1.0448175952917732e-04 0.0000000000000000e+00  1.2486110451924215e-05 1.0448175951469238e-04 0.0000000000000000e+00  1.2486110465685988e-05 1.0448175952028745e-04 0.0000000000000000e+00  1.2486110458322233e-05 1.0448175952518746e-04 0.0000000000000000e+00  1.2486110469428224e-05 1.0448175952353947e-04 0.0000000000000000e+00  1.2486110463452718e-05 1.0448175953733052e-04 0.0000000000000000e+00  1.2486110468160693e-05 4.6039618967056921e-05 0.0000000000000000e+00  1.0825973103910899e-04 4.2415062716559884e-04 0.0000000000000000e+00  1.0825973103240435e-04 4.2415062715597113e-04 0.0000000000000000e+00  1.0825973103791946e-04 4.2415062715293542e-04 0.0000000000000000e+00  1.0825973104905779e-04 4.2415062716290997e-04 0.0000000000000000e+00  1.0825973104343455e-04 4.2415062717383872e-04 0.0000000000000000e+00  1.0825973104657058e-04 4.2415062716846141e-04 0.0000000000000000e+00  1.0825973103802759e-04 4.2415062716932817e-04 0.0000000000000000e+00  1.0825973104343454e-04 4.2415062716941551e-04 0.0000000000000000e+00  1.0825973103597293e-04 4.2415062716464502e-04 0.0000000000000000e+00  1.0825973103856828e-04 4.2415062716369032e-04 0.0000000000000000e+00  1.0825973103975780e-04 4.2415062716464502e-04 0.0000000000000000e+00  1.0825973105003103e-04 4.2415062717427273e-04 0.0000000000000000e+00  1.0825973103856828e-04 4.2415062716854755e-04 0.0000000000000000e+00  1.0825973103921713e-04 4.2415062715371566e-04 0.0000000000000000e+00  1.0825973103791944e-04 4.2415062716152300e-04 0.0000000000000000e+00  1.0825973103943340e-04 4.2415062715813921e-04 0.0000000000000000e+00  1.0825973104894966e-04 4.2415062716316990e-04 0.0000000000000000e+00  1.0825973104657058e-04 4.2415062716481898e-04 0.0000000000000000e+00  1.0825973103381017e-04 4.2415062716247601e-04 0.0000000000000000e+00  1.0825973103986597e-04 4.2415062715683816e-04 0.0000000000000000e+00  1.0825973104289384e-04 4.2415062716932926e-04 0.0000000000000000e+00  1.0825973103997410e-04 4.2415062716126171e-04 0.0000000000000000e+00  1.0825973104246130e-04 4.2415062716290970e-04 0.0000000000000000e+00  1.0825973103813571e-04 4.2415062715718619e-04 0.0000000000000000e+00  1.0825973104473222e-04 4.2415062716473116e-04 0.0000000000000000e+00  1.0825973104635431e-04 4.2415062716768019e-04 0.0000000000000000e+00  1.0825973102699739e-04 4.2415062715180747e-04 0.0000000000000000e+00  1.0825973103597295e-04 4.2415062716421074e-04 0.0000000000000000e+00  1.0825973103683806e-04 4.2415062716022315e-04 0.0000000000000000e+00  1.0825973103986597e-04 4.2415062715848615e-04 0.0000000000000000e+00  1.0825973104440781e-04 4.2415062715987393e-04 0.0000000000000000e+00  1.0825973103445900e-04 4.2415062715406261e-04 0.0000000000000000e+00  1.0825973104289386e-04 4.2415062716204233e-04 0.0000000000000000e+00  1.0825973103846015e-04 4.2415062715414934e-04 0.0000000000000000e+00  1.0825973104429966e-04 4.2415062716126399e-04 0.0000000000000000e+00  1.0825973103445900e-04 4.2415062715935351e-04 0.0000000000000000e+00  1.0825973103478342e-04 4.2415062715527691e-04 0.0000000000000000e+00  1.0825973104375897e-04 4.2415062716438421e-04 0.0000000000000000e+00  1.0825973104343455e-04 4.2415062716594546e-04 0.0000000000000000e+00  1.0825973103813573e-04 4.2415062715015948e-04 0.0000000000000000e+00  1.0825973103910899e-04 4.2415062715085564e-04 0.0000000000000000e+00  1.0825973104235317e-04 4.2415062716264949e-04 0.0000000000000000e+00  1.0825973105143686e-04 4.2415062717019553e-04 0.0000000000000000e+00  1.0825973103932526e-04 4.2415062716993533e-04 0.0000000000000000e+00  1.0825973104711128e-04 4.2415062716872102e-04 0.0000000000000000e+00  1.0825973104159619e-04 4.2415062716967512e-04 0.0000000000000000e+00  1.0825973104397525e-04 4.2415062716030989e-04 0.0000000000000000e+00  1.0825973104062293e-04 4.2415062715519018e-04 0.0000000000000000e+00  1.0825973103737877e-04 4.2415062715588407e-04 0.0000000000000000e+00  1.0825973104051479e-04 4.2415062716620567e-04 0.0000000000000000e+00  1.0825973103910899e-04 1.2932607531137384e-04 0.0000000000000000e+00  6.7508127113628789e-06 7.6220228489116612e-04 0.0000000000000000e+00  6.7508127055271303e-06 7.6220228489272737e-04 0.0000000000000000e+00  6.7508127053502901e-06 7.6220228488032432e-04 0.0000000000000000e+00  6.7508127004871648e-06 7.6220228487451267e-04 0.0000000000000000e+00  6.7508127141923332e-06 7.6220228489975290e-04 0.0000000000000000e+00  6.7508127017250509e-06 7.6220228488951857e-04 0.0000000000000000e+00  6.7508126963314043e-06 7.6220228488587467e-04 0.0000000000000000e+00  6.7508127053502893e-06 7.6220228489350843e-04 0.0000000000000000e+00  6.7508126907609167e-06 7.6220228488353377e-04 0.0000000000000000e+00  6.7508126958008813e-06 7.6220228488379301e-04 0.0000000000000000e+00  6.7508126979229724e-06 7.6220228489081961e-04 0.0000000000000000e+00  6.7508126998682217e-06 7.6220228489368191e-04 0.0000000000000000e+00  6.7508126960661432e-06 7.6220228488075724e-04 0.0000000000000000e+00  6.7508127051734483e-06 7.6220228489350746e-04 0.0000000000000000e+00  6.7508127017250509e-06 7.6220228489385646e-04 0.0000000000000000e+00  6.7508126981882335e-06 7.6220228486627230e-04 0.0000000000000000e+00  6.7508127123355040e-06 7.6220228488544099e-04 0.0000000000000000e+00  6.7508126992492786e-06 7.6220228488188687e-04 0.0000000000000000e+00  6.7508126965082453e-06 7.6220228488023682e-04 0.0000000000000000e+00  6.7508127003987447e-06 7.6220228488023682e-04 0.0000000000000000e+00  6.7508126991608586e-06 7.6220228488171340e-04 0.0000000000000000e+00  6.7508126970387674e-06 7.6220228486748661e-04 0.0000000000000000e+00  6.7508126980113925e-06 7.6220228488422669e-04 0.0000000000000000e+00  6.7508127065881754e-06 7.6220228488986660e-04 0.0000000000000000e+00  6.7508127088871067e-06 7.6220228489437482e-04 0.0000000000000000e+00  6.7508126949166772e-06 7.6220228487017543e-04 0.0000000000000000e+00  6.7508127046429261e-06 7.6220228489541565e-04 0.0000000000000000e+00  6.7508127133965491e-06 7.6220228489099211e-04 0.0000000000000000e+00  6.7508126996913807e-06 7.6220228488691974e-04 0.0000000000000000e+00  6.7508126986303356e-06 7.6220228487581328e-04 0.0000000000000000e+00  6.7508127007524267e-06 7.6220228488015009e-04 0.0000000000000000e+00  6.7508127102134137e-06 7.6220228489983920e-04 0.0000000000000000e+00  6.7508126978345515e-06 7.6220228487806842e-04 0.0000000000000000e+00  6.7508127078260615e-06 7.6220228489125232e-04 0.0000000000000000e+00  6.7508127126007651e-06 7.6220228489108307e-04 0.0000000000000000e+00  6.7508127013713698e-06 7.6220228488162460e-04 0.0000000000000000e+00  6.7508127020787329e-06 7.6220228488804308e-04 0.0000000000000000e+00  6.7508127031397781e-06 7.6220228488578794e-04 0.0000000000000000e+00  6.7508127020787329e-06 7.6220228487624696e-04 0.0000000000000000e+00  6.7508127050850282e-06 7.6220228488006335e-04 0.0000000000000000e+00  6.7508127112744589e-06 7.6220228490973135e-04 0.0000000000000000e+00  6.7508127113628789e-06 7.6220228489125232e-04 0.0000000000000000e+00  6.7508127120702429e-06 7.6220228489003801e-04 0.0000000000000000e+00  6.7508127057039712e-06 7.6220228489255336e-04 0.0000000000000000e+00  6.7508127076492205e-06 7.6220228488231849e-04 0.0000000000000000e+00  6.7508127025208350e-06 7.6220228488865023e-04 0.0000000000000000e+00  6.7508127029629371e-06 7.6220228488639932e-04 0.0000000000000000e+00  6.7508127082681636e-06 7.6220228488995127e-04 0.0000000000000000e+00  6.7508127057039712e-06 7.6220228488812982e-04 0.0000000000000000e+00  6.7508127130428680e-06 7.6220228489506871e-04 0.0000000000000000e+00  6.7508127113628789e-06 2.0297716563765918e-04 0.0000000000000000e+00  -9.4323917719284851e-04 -3.3880636735822076e-03 0.0000000000000000e+00  -9.4323917719169883e-04 -3.3880636735567071e-03 0.0000000000000000e+00  -9.4323917720925726e-04 -3.3880636735999022e-03 0.0000000000000000e+00  -9.4323917720361345e-04 -3.3880636735731866e-03 0.0000000000000000e+00  -9.4323917720748047e-04 -3.3880636735789111e-03 0.0000000000000000e+00  -9.4323917720894371e-04 -3.3880636736023321e-03 0.0000000000000000e+00  -9.4323917720476303e-04 -3.3880636735943472e-03 0.0000000000000000e+00  -9.4323917719002655e-04 -3.3880636735676376e-03 0.0000000000000000e+00  -9.4323917719859674e-04 -3.3880636735959136e-03 0.0000000000000000e+00  -9.4323917719347540e-04 -3.3880636735938267e-03 0.0000000000000000e+00  -9.4323917719180334e-04 -3.3880636735917503e-03 0.0000000000000000e+00  -9.4323917719472971e-04 -3.3880636735974749e-03 0.0000000000000000e+00  -9.4323917719452057e-04 -3.3880636735757856e-03 0.0000000000000000e+00  -9.4323917719243034e-04 -3.3880636735664181e-03 0.0000000000000000e+00  -9.4323917720507658e-04 -3.3880636735787442e-03 0.0000000000000000e+00  -9.4323917720026890e-04 -3.3880636735881021e-03 0.0000000000000000e+00  -9.4323917719514767e-04 -3.3880636735622548e-03 0.0000000000000000e+00  -9.4323917720350882e-04 -3.3880636735960914e-03 0.0000000000000000e+00  -9.4323917719357992e-04 -3.3880636735645099e-03 0.0000000000000000e+00  -9.4323917720591272e-04 -3.3880636735891430e-03 0.0000000000000000e+00  -9.4323917720706230e-04 -3.3880636735875913e-03 0.0000000000000000e+00  -9.4323917720152311e-04 -3.3880636735782142e-03 0.0000000000000000e+00  -9.4323917719587929e-04 -3.3880636735617344e-03 0.0000000000000000e+00  -9.4323917720288172e-04 -3.3880636735846422e-03 0.0000000000000000e+00  -9.4323917719838760e-04 -3.3880636735842858e-03 0.0000000000000000e+00  -9.4323917719932825e-04 -3.3880636735806428e-03 0.0000000000000000e+00  -9.4323917720194118e-04 -3.3880636735887960e-03 0.00000000000