<?xml version="1.0"?>
<VTKFile type="UnstructuredGrid"  version="0.1"  >
<UnstructuredGrid>
<Piece  NumberOfPoints="2601" NumberOfCells="5000">
<Points>
<DataArray  type="Float64"  NumberOfComponents="3"  format="ascii">0 0 0  0.02 0 0  0.04 0 0  0.06 0 0  0.08 0 0  0.1 0 0  0.12 0 0  0.14 0 0  0.16 0 0  0.18 0 0  0.2 0 0  0.22 0 0  0.24 0 0  0.26 0 0  0.28 0 0  0.3 0 0  0.32 0 0  0.34 0 0  0.36 0 0  0.38 0 0  0.4 0 0  0.42 0 0  0.44 0 0  0.46 0 0  0.48 0 0  0.5 0 0  0.52 0 0  0.54 0 0  0.5600000000000001 0 0  0.58 0 0  0.6 0 0  0.62 0 0  0.64 0 0  0.66 0 0  0.68 0 0  0.7 0 0  0.72 0 0  0.74 0 0  0.76 0 0  0.78 0 0  0.8 0 0  0.82 0 0  0.84 0 0  0.86 0 0  0.88 0 0  0.9 0 0  0.92 0 0  0.9399999999999999 0 0  0.96 0 0  0.98 0 0  1 0 0  0 0.01313563088723984 0  0.02 0.01313563088723984 0  0.04 0.01313563088723984 0  0.06 0.01313563088723984 0  0.08 0.01313563088723984 0  0.1 0.01313563088723984 0  0.12 0.01313563088723984 0  0.14 0.01313563088723984 0  0.16 0.01313563088723984 0  0.18 0.01313563088723984 0  0.2 0.01313563088723984 0  0.22 0.01313563088723984 0  0.24 0.01313563088723984 0  0.26 0.01313563088723984 0  0.28 0.01313563088723984 0  0.3 0.01313563088723984 0  0.32 0.01313563088723984 0  0.34 0.01313563088723984 0  0.36 0.01313563088723984 0  0.38 0.01313563088723984 0  0.4 0.01313563088723984 0  0.42 0.01313563088723984 0  0.44 0.01313563088723984 0  0.46 0.01313563088723984 0  0.48 0.01313563088723984 0  0.5 0.01313563088723984 0  0.52 0.01313563088723984 0  0.54 0.01313563088723984 0  0.5600000000000001 0.01313563088723984 0  0.58 0.01313563088723984 0  0.6 0.01313563088723984 0  0.62 0.01313563088723984 0  0.64 0.01313563088723984 0  0.66 0.01313563088723984 0  0.68 0.01313563088723984 0  0.7 0.01313563088723984 0  0.72 0.01313563088723984 0  0.74 0.01313563088723984 0  0.76 0.01313563088723984 0  0.78 0.01313563088723984 0  0.8 0.01313563088723984 0  0.82 0.01313563088723984 0  0.84 0.01313563088723984 0  0.86 0.01313563088723984 0  0.88 0.01313563088723984 0  0.9 0.01313563088723984 0  0.92 0.01313563088723984 0  0.9399999999999999 0.01313563088723984 0  0.96 0.01313563088723984 0  0.98 0.01313563088723984 0  1 0.01313563088723984 0  0 0.02664639863733726 0  0.02 0.02664639863733726 0  0.04 0.02664639863733726 0  0.06 0.02664639863733726 0  0.08 0.02664639863733726 0  0.1 0.02664639863733726 0  0.12 0.02664639863733726 0  0.14 0.02664639863733726 0  0.16 0.02664639863733726 0  0.18 0.02664639863733726 0  0.2 0.02664639863733726 0  0.22 0.02664639863733726 0  0.24 0.02664639863733726 0  0.26 0.02664639863733726 0  0.28 0.02664639863733726 0  0.3 0.02664639863733726 0  0.32 0.02664639863733726 0  0.34 0.02664639863733726 0  0.36 0.02664639863733726 0  0.38 0.02664639863733726 0  0.4 0.02664639863733726 0  0.42 0.02664639863733726 0  0.44 0.02664639863733726 0  0.46 0.02664639863733726 0  0.48 0.02664639863733726 0  0.5 0.02664639863733726 0  0.52 0.02664639863733726 0  0.54 0.02664639863733726 0  0.5600000000000001 0.02664639863733726 0  0.58 0.02664639863733726 0  0.6 0.02664639863733726 0  0.62 0.02664639863733726 0  0.64 0.02664639863733726 0  0.66 0.02664639863733726 0  0.68 0.02664639863733726 0  0.7 0.02664639863733726 0  0.72 0.02664639863733726 0  0.74 0.02664639863733726 0  0.76 0.02664639863733726 0  0.78 0.02664639863733726 0  0.8 0.02664639863733726 0  0.82 0.02664639863733726 0  0.84 0.02664639863733726 0  0.86 0.02664639863733726 0  0.88 0.02664639863733726 0  0.9 0.02664639863733726 0  0.92 0.02664639863733726 0  0.9399999999999999 0.02664639863733726 0  0.96 0.02664639863733726 0  0.98 0.02664639863733726 0  1 0.02664639863733726 0  0 0.04101652939099896 0  0.02 0.04101652939099896 0  0.04 0.04101652939099896 0  0.06 0.04101652939099896 0  0.08 0.04101652939099896 0  0.1 0.04101652939099896 0  0.12 0.04101652939099896 0  0.14 0.04101652939099896 0  0.16 0.04101652939099896 0  0.18 0.04101652939099896 0  0.2 0.04101652939099896 0  0.22 0.04101652939099896 0  0.24 0.04101652939099896 0  0.26 0.04101652939099896 0  0.28 0.04101652939099896 0  0.3 0.04101652939099896 0  0.32 0.04101652939099896 0  0.34 0.04101652939099896 0  0.36 0.04101652939099896 0  0.38 0.04101652939099896 0  0.4 0.04101652939099896 0  0.42 0.04101652939099896 0  0.44 0.04101652939099896 0  0.46 0.04101652939099896 0  0.48 0.04101652939099896 0  0.5 0.04101652939099896 0  0.52 0.04101652939099896 0  0.54 0.04101652939099896 0  0.5600000000000001 0.04101652939099896 0  0.58 0.04101652939099896 0  0.6 0.04101652939099896 0  0.62 0.04101652939099896 0  0.64 0.04101652939099896 0  0.66 0.04101652939099896 0  0.68 0.04101652939099896 0  0.7 0.04101652939099896 0  0.72 0.04101652939099896 0  0.74 0.04101652939099896 0  0.76 0.04101652939099896 0  0.78 0.04101652939099896 0  0.8 0.04101652939099896 0  0.82 0.04101652939099896 0  0.84 0.04101652939099896 0  0.86 0.04101652939099896 0  0.88 0.04101652939099896 0  0.9 0.04101652939099896 0  0.92 0.04101652939099896 0  0.9399999999999999 0.04101652939099896 0  0.96 0.04101652939099896 0  0.98 0.04101652939099896 0  1 0.04101652939099896 0  0 0.05705811164099547 0  0.02 0.05705811164099547 0  0.04 0.05705811164099547 0  0.06 0.05705811164099547 0  0.08 0.05705811164099547 0  0.1 0.05705811164099547 0  0.12 0.05705811164099547 0  0.14 0.05705811164099547 0  0.16 0.05705811164099547 0  0.18 0.05705811164099547 0  0.2 0.05705811164099547 0  0.22 0.05705811164099547 0  0.24 0.05705811164099547 0  0.26 0.05705811164099547 0  0.28 0.05705811164099547 0  0.3 0.05705811164099547 0  0.32 0.05705811164099547 0  0.34 0.05705811164099547 0  0.36 0.05705811164099547 0  0.38 0.05705811164099547 0  0.4 0.05705811164099547 0  0.42 0.05705811164099547 0  0.44 0.05705811164099547 0  0.46 0.05705811164099547 0  0.48 0.05705811164099547 0  0.5 0.05705811164099547 0  0.52 0.05705811164099547 0  0.54 0.05705811164099547 0  0.5600000000000001 0.05705811164099547 0  0.58 0.05705811164099547 0  0.6 0.05705811164099547 0  0.62 0.05705811164099547 0  0.64 0.05705811164099547 0  0.66 0.05705811164099547 0  0.68 0.05705811164099547 0  0.7 0.05705811164099547 0  0.72 0.05705811164099547 0  0.74 0.05705811164099547 0  0.76 0.05705811164099547 0  0.78 0.05705811164099547 0  0.8 0.05705811164099547 0  0.82 0.05705811164099547 0  0.84 0.05705811164099547 0  0.86 0.05705811164099547 0  0.88 0.05705811164099547 0  0.9 0.05705811164099547 0  0.92 0.05705811164099547 0  0.9399999999999999 0.05705811164099547 0  0.96 0.05705811164099547 0  0.98 0.05705811164099547 0  1 0.05705811164099547 0  0 0.07667714377545 0  0.02 0.07667714377545 0  0.04 0.07667714377545 0  0.06 0.07667714377545 0  0.08 0.07667714377545 0  0.1 0.07667714377545 0  0.12 0.07667714377545 0  0.14 0.07667714377545 0  0.16 0.07667714377545 0  0.18 0.07667714377545 0  0.2 0.07667714377545 0  0.22 0.07667714377545 0  0.24 0.07667714377545 0  0.26 0.07667714377545 0  0.28 0.07667714377545 0  0.3 0.07667714377545 0  0.32 0.07667714377545 0  0.34 0.07667714377545 0  0.36 0.07667714377545 0  0.38 0.07667714377545 0  0.4 0.07667714377545 0  0.42 0.07667714377545 0  0.44 0.07667714377545 0  0.46 0.07667714377545 0  0.48 0.07667714377545 0  0.5 0.07667714377545 0  0.52 0.07667714377545 0  0.54 0.07667714377545 0  0.5600000000000001 0.07667714377545 0  0.58 0.07667714377545 0  0.6 0.07667714377545 0  0.62 0.07667714377545 0  0.64 0.07667714377545 0  0.66 0.07667714377545 0  0.68 0.07667714377545 0  0.7 0.07667714377545 0  0.72 0.07667714377545 0  0.74 0.07667714377545 0  0.76 0.07667714377545 0  0.78 0.07667714377545 0  0.8 0.07667714377545 0  0.82 0.07667714377545 0  0.84 0.07667714377545 0  0.86 0.07667714377545 0  0.88 0.07667714377545 0  0.9 0.07667714377545 0  0.92 0.07667714377545 0  0.9399999999999999 0.07667714377545 0  0.96 0.07667714377545 0  0.98 0.07667714377545 0  1 0.07667714377545 0  0 0.1098730133816912 0  0.02 0.1098730133816912 0  0.04 0.1098730133816912 0  0.06 0.1098730133816912 0  0.08 0.1098730133816912 0  0.1 0.1098730133816912 0  0.12 0.1098730133816912 0  0.14 0.1098730133816912 0  0.16 0.1098730133816912 0  0.18 0.1098730133816912 0  0.2 0.1098730133816912 0  0.22 0.1098730133816912 0  0.24 0.1098730133816912 0  0.26 0.1098730133816912 0  0.28 0.1098730133816912 0  0.3 0.1098730133816912 0  0.32 0.1098730133816912 0  0.34 0.1098730133816912 0  0.36 0.1098730133816912 0  0.38 0.1098730133816912 0  0.4 0.1098730133816912 0  0.42 0.1098730133816912 0  0.44 0.1098730133816912 0  0.46 0.1098730133816912 0  0.48 0.1098730133816912 0  0.5 0.1098730133816912 0  0.52 0.1098730133816912 0  0.54 0.1098730133816912 0  0.5600000000000001 0.1098730133816912 0  0.58 0.1098730133816912 0  0.6 0.1098730133816912 0  0.62 0.1098730133816912 0  0.64 0.1098730133816912 0  0.66 0.1098730133816912 0  0.68 0.1098730133816912 0  0.7 0.1098730133816912 0  0.72 0.1098730133816912 0  0.74 0.1098730133816912 0  0.76 0.1098730133816912 0  0.78 0.1098730133816912 0  0.8 0.1098730133816912 0  0.82 0.1098730133816912 0  0.84 0.1098730133816912 0  0.86 0.1098730133816912 0  0.88 0.1098730133816912 0  0.9 0.1098730133816912 0  0.92 0.1098730133816912 0  0.9399999999999999 0.1098730133816912 0  0.96 0.1098730133816912 0  0.98 0.1098730133816912 0  1 0.1098730133816912 0  0 0.1603283563168221 0  0.02 0.1603283563168221 0  0.04 0.1603283563168221 0  0.06 0.1603283563168221 0  0.08 0.1603283563168221 0  0.1 0.1603283563168221 0  0.12 0.1603283563168221 0  0.14 0.1603283563168221 0  0.16 0.1603283563168221 0  0.18 0.1603283563168221 0  0.2 0.1603283563168221 0  0.22 0.1603283563168221 0  0.24 0.1603283563168221 0  0.26 0.1603283563168221 0  0.28 0.1603283563168221 0  0.3 0.1603283563168221 0  0.32 0.1603283563168221 0  0.34 0.1603283563168221 0  0.36 0.1603283563168221 0  0.38 0.1603283563168221 0  0.4 0.1603283563168221 0  0.42 0.1603283563168221 0  0.44 0.1603283563168221 0  0.46 0.1603283563168221 0  0.48 0.1603283563168221 0  0.5 0.1603283563168221 0  0.52 0.1603283563168221 0  0.54 0.1603283563168221 0  0.5600000000000001 0.1603283563168221 0  0.58 0.1603283563168221 0 
[...]
<PointData  Vectors="u_paraw"> 
<DataArray  type="Float64"  Name="u_paraw"  NumberOfComponents="3" format="ascii">1.1635470646230707e-04 1.4668632956581478e-04 0.0000000000000000e+00  1.1635470646156422e-04 1.4668632956623762e-04 0.0000000000000000e+00  1.1635470646232357e-04 1.4668632956788561e-04 0.0000000000000000e+00  1.1635470646179533e-04 1.4668632956969620e-04 0.0000000000000000e+00  1.1635470646235660e-04 1.4668632956682306e-04 0.0000000000000000e+00  1.1635470646242261e-04 1.4668632957174542e-04 0.0000000000000000e+00  1.1635470646278578e-04 1.4668632956675787e-04 0.0000000000000000e+00  1.1635470646349562e-04 1.4668632956682314e-04 0.0000000000000000e+00  1.1635470646517941e-04 1.4668632956878555e-04 0.0000000000000000e+00  1.1635470645981437e-04 1.4668632956480631e-04 0.0000000000000000e+00  1.1635470646158071e-04 1.4668632956628104e-04 0.0000000000000000e+00  1.1635470646483275e-04 1.4668632956645451e-04 0.0000000000000000e+00  1.1635470646116801e-04 1.4668632956462200e-04 0.0000000000000000e+00  1.1635470645922009e-04 1.4668632956196570e-04 0.0000000000000000e+00  1.1635470646044168e-04 1.4668632956572832e-04 0.0000000000000000e+00  1.1635470645981437e-04 1.4668632956334264e-04 0.0000000000000000e+00  1.1635470645976485e-04 1.4668632956338601e-04 0.0000000000000000e+00  1.1635470646045818e-04 1.4668632956322381e-04 0.0000000000000000e+00  1.1635470645994644e-04 1.4668632956298485e-04 0.0000000000000000e+00  1.1635470646108548e-04 1.4668632956385221e-04 0.0000000000000000e+00  1.1635470645973184e-04 1.4668632956486095e-04 0.0000000000000000e+00  1.1635470646044168e-04 1.4668632956434010e-04 0.0000000000000000e+00  1.1635470646065627e-04 1.4668632956403653e-04 0.0000000000000000e+00  1.1635470646014453e-04 1.4668632956499106e-04 0.0000000000000000e+00  1.1635470646113500e-04 1.4668632956467621e-04 0.0000000000000000e+00  1.1635470646156421e-04 1.4668632956525083e-04 0.0000000000000000e+00  1.1635470646281879e-04 1.4668632956548936e-04 0.0000000000000000e+00  1.1635470646181182e-04 1.4668632956599893e-04 0.0000000000000000e+00  1.1635470645999596e-04 1.4668632956272548e-04 0.0000000000000000e+00  1.1635470645964930e-04 1.4668632956312580e-04 0.0000000000000000e+00  1.1635470646042516e-04 1.4668632956477378e-04 0.0000000000000000e+00  1.1635470646063976e-04 1.4668632956383053e-04 0.0000000000000000e+00  1.1635470646009500e-04 1.4668632956278969e-04 0.0000000000000000e+00  1.1635470646029310e-04 1.4668632956319085e-04 0.0000000000000000e+00  1.1635470646059024e-04 1.4668632956365790e-04 0.0000000000000000e+00  1.1635470646037564e-04 1.4668632956379800e-04 0.0000000000000000e+00  1.1635470645771788e-04 1.4668632955963467e-04 0.0000000000000000e+00  1.1635470645966581e-04 1.4668632956293064e-04 0.0000000000000000e+00  1.1635470646146515e-04 1.4668632956497978e-04 0.0000000000000000e+00  1.1635470646029310e-04 1.4668632956342937e-04 0.0000000000000000e+00  1.1635470646030961e-04 1.4668632956422168e-04 0.0000000000000000e+00  1.1635470645926961e-04 1.4668632956226928e-04 0.0000000000000000e+00  1.1635470646034262e-04 1.4668632956377632e-04 0.0000000000000000e+00  1.1635470646017755e-04 1.4668632956267043e-04 0.0000000000000000e+00  1.1635470646078834e-04 1.4668632956366790e-04 0.0000000000000000e+00  1.1635470646016105e-04 1.4668632956434010e-04 0.0000000000000000e+00  1.1635470646092039e-04 1.4668632956570704e-04 0.0000000000000000e+00  1.1635470646065627e-04 1.4668632956487136e-04 0.0000000000000000e+00  1.1635470646225753e-04 1.4668632956389558e-04 0.0000000000000000e+00  1.1635470646021057e-04 1.4668632956493641e-04 0.0000000000000000e+00  1.1635470646230705e-04 -5.2760979506823474e-16 0.0000000000000000e+00  3.3948151301917612e-04 4.4023133516782933e-04 0.0000000000000000e+00  3.3948151301846992e-04 4.4023133516685355e-04 0.0000000000000000e+00  3.3948151301940082e-04 4.4023133516652840e-04 0.0000000000000000e+00  3.3948151301869468e-04 4.4023133516689692e-04 0.0000000000000000e+00  3.3948151301712188e-04 4.4023133516657166e-04 0.0000000000000000e+00  3.3948151302065274e-04 4.4023133516919570e-04 0.0000000000000000e+00  3.3948151302103791e-04 4.4023133516943362e-04 0.0000000000000000e+00  3.3948151301830951e-04 4.4023133516615993e-04 0.0000000000000000e+00  3.3948151301940087e-04 4.4023133516548772e-04 0.0000000000000000e+00  3.3948151301962557e-04 4.4023133516685322e-04 0.0000000000000000e+00  3.3948151301866258e-04 4.4023133516529257e-04 0.0000000000000000e+00  3.3948151301901571e-04 4.4023133516455531e-04 0.0000000000000000e+00  3.3948151301930459e-04 4.4023133516661470e-04 0.0000000000000000e+00  3.3948151302020334e-04 4.4023133516856626e-04 0.0000000000000000e+00  3.3948151301895147e-04 4.4023133516655084e-04 0.0000000000000000e+00  3.3948151301898362e-04 4.4023133516522692e-04 0.0000000000000000e+00  3.3948151301670457e-04 4.4023133516494503e-04 0.0000000000000000e+00  3.3948151301930459e-04 4.4023133516900114e-04 0.0000000000000000e+00  3.3948151301840579e-04 4.4023133516654965e-04 0.0000000000000000e+00  3.3948151301994655e-04 4.4023133516585576e-04 0.0000000000000000e+00  3.3948151301869468e-04 4.4023133516897945e-04 0.0000000000000000e+00  3.3948151301911198e-04 4.4023133516707006e-04 0.0000000000000000e+00  3.3948151301888728e-04 4.4023133516416440e-04 0.0000000000000000e+00  3.3948151301811690e-04 4.4023133516652915e-04 0.0000000000000000e+00  3.3948151301795644e-04 4.4023133516518355e-04 0.0000000000000000e+00  3.3948151301753913e-04 4.4023133516622439e-04 0.0000000000000000e+00  3.3948151302013916e-04 4.4023133516683154e-04 0.0000000000000000e+00  3.3948151301968976e-04 4.4023133516553050e-04 0.0000000000000000e+00  3.3948151302036386e-04 4.4023133516668219e-04 0.0000000000000000e+00  3.3948151301779593e-04 4.4023133516626775e-04 0.0000000000000000e+00  3.3948151301792435e-04 4.4023133516598586e-04 0.0000000000000000e+00  3.3948151301725025e-04 4.4023133516264652e-04 0.0000000000000000e+00  3.3948151301830951e-04 4.4023133516431619e-04 0.0000000000000000e+00  3.3948151302068484e-04 4.4023133516759048e-04 0.0000000000000000e+00  3.3948151301981818e-04 4.4023133516878554e-04 0.0000000000000000e+00  3.3948151301840579e-04 4.4023133516717848e-04 0.0000000000000000e+00  3.3948151301904780e-04 4.4023133516557386e-04 0.0000000000000000e+00  3.3948151301952929e-04 4.4023133516778564e-04 0.0000000000000000e+00  3.3948151302055641e-04 4.4023133516869637e-04 0.0000000000000000e+00  3.3948151302087745e-04 4.4023133516867468e-04 0.0000000000000000e+00  3.3948151302087745e-04 4.4023133516837354e-04 0.0000000000000000e+00  3.3948151301667248e-04 4.4023133516496671e-04 0.0000000000000000e+00  3.3948151301940087e-04 4.4023133516618102e-04 0.0000000000000000e+00  3.3948151301895147e-04 4.4023133516624607e-04 0.0000000000000000e+00  3.3948151301830951e-04 4.4023133516650628e-04 0.0000000000000000e+00  3.3948151302155149e-04 4.4023133516852289e-04 0.0000000000000000e+00  3.3948151302029962e-04 4.4023133516848197e-04 0.0000000000000000e+00  3.3948151301920826e-04 4.4023133516913005e-04 0.0000000000000000e+00  3.3948151301888728e-04 4.4023133516665807e-04 0.0000000000000000e+00  3.3948151301898362e-04 4.4023133516650628e-04 0.0000000000000000e+00  3.3948151301917617e-04 -1.6509342361699413e-04 0.0000000000000000e+00  5.0766722177330800e-04 7.1332929040884493e-04 0.0000000000000000e+00  5.0766722177318733e-04 7.1332929041127355e-04 0.0000000000000000e+00  5.0766722177185940e-04 7.1332929040932209e-04 0.0000000000000000e+00  5.0766722177137660e-04 7.1332929040832430e-04 0.0000000000000000e+00  5.0766722177318733e-04 7.1332929040940850e-04 0.0000000000000000e+00  5.0766722177348906e-04 7.1332929041110051e-04 0.0000000000000000e+00  5.0766722177403236e-04 7.1332929041296425e-04 0.0000000000000000e+00  5.0766722177674850e-04 7.1332929041465669e-04 0.0000000000000000e+00  5.0766722177330800e-04 7.1332929041058009e-04 0.0000000000000000e+00  5.0766722177457554e-04 7.1332929041352804e-04 0.0000000000000000e+00  5.0766722177511883e-04 7.1332929041244492e-04 0.0000000000000000e+00  5.0766722177264403e-04 7.1332929041023315e-04 0.0000000000000000e+00  5.0766722177493766e-04 7.1332929041374488e-04 0.0000000000000000e+00  5.0766722177602414e-04 7.1332929041357141e-04 0.0000000000000000e+00  5.0766722177385129e-04 7.1332929040971360e-04 0.0000000000000000e+00  5.0766722177264403e-04 7.1332929040897439e-04 0.0000000000000000e+00  5.0766722177324772e-04 7.1332929041357141e-04 0.0000000000000000e+00  5.0766722177554135e-04 7.1332929041127485e-04 0.0000000000000000e+00  5.0766722177065225e-04 7.1332929040819376e-04 0.0000000000000000e+00  5.0766722177198018e-04 7.1332929040945144e-04 0.0000000000000000e+00  5.0766722177499805e-04 7.1332929041344325e-04 0.0000000000000000e+00  5.0766722177071264e-04 7.1332929041096932e-04 0.0000000000000000e+00  5.0766722177421342e-04 7.1332929041096932e-04 0.0000000000000000e+00  5.0766722177324772e-04 7.1332929040949676e-04 0.0000000000000000e+00  5.0766722177222163e-04 7.1332929040884428e-04 0.0000000000000000e+00  5.0766722177270442e-04 7.1332929041300762e-04 0.0000000000000000e+00  5.0766722177373051e-04 7.1332929041096932e-04 0.0000000000000000e+00  5.0766722177300627e-04 7.1332929041140300e-04 0.0000000000000000e+00  5.0766722177572241e-04 7.1332929040915187e-04 0.0000000000000000e+00  5.0766722177222163e-04 7.1332929041161984e-04 0.0000000000000000e+00  5.0766722177360984e-04 7.1332929041318109e-04 0.0000000000000000e+00  5.0766722177433409e-04 7.1332929041248720e-04 0.0000000000000000e+00  5.0766722177373051e-04 7.1332929041235710e-04 0.0000000000000000e+00  5.0766722177264403e-04 7.1332929041153311e-04 0.0000000000000000e+00  5.0766722177638638e-04 7.1332929041236111e-04 0.0000000000000000e+00  5.0766722177125582e-04 7.1332929040988512e-04 0.0000000000000000e+00  5.0766722177367023e-04 7.1332929041348467e-04 0.0000000000000000e+00  5.0766722177336839e-04 7.1332929041036217e-04 0.0000000000000000e+00  5.0766722177439448e-04 7.1332929041131627e-04 0.0000000000000000e+00  5.0766722177433409e-04 7.1332929041075248e-04 0.0000000000000000e+00  5.0766722177360984e-04 7.1332929041006260e-04 0.0000000000000000e+00  5.0766722177179912e-04 7.1332929041092595e-04 0.0000000000000000e+00  5.0766722177367023e-04 7.1332929041118616e-04 0.0000000000000000e+00  5.0766722177300627e-04 7.1332929041227036e-04 0.0000000000000000e+00  5.0766722177354945e-04 7.1332929041322446e-04 0.0000000000000000e+00  5.0766722177511883e-04 7.1332929041148974e-04 0.0000000000000000e+00  5.0766722177421342e-04 7.1332929040954219e-04 0.0000000000000000e+00  5.0766722177204046e-04 7.1332929041205352e-04 0.0000000000000000e+00  5.0766722177463593e-04 7.1332929041183668e-04 0.0000000000000000e+00  5.0766722177523951e-04 7.1332929041292088e-04 0.0000000000000000e+00  5.0766722177330800e-04 -3.3029960600091789e-04 0.0000000000000000e+00  3.0474198988094661e-04 6.2637263691491321e-04 0.0000000000000000e+00  3.0474198988148730e-04 6.2637263691699488e-04 0.0000000000000000e+00  3.0474198988289308e-04 6.2637263691907666e-04 0.0000000000000000e+00  3.0474198988278493e-04 6.2637263691630088e-04 0.0000000000000000e+00  3.0474198988321752e-04 6.2637263691916318e-04 0.0000000000000000e+00  3.0474198988235239e-04 6.2637263691543406e-04 0.0000000000000000e+00  3.0474198988040586e-04 6.2637263691083607e-04 0.0000000000000000e+00  3.0474198988256863e-04 6.2637263692046476e-04 0.0000000000000000e+00  3.0474198988181164e-04 6.2637263691430649e-04 0.0000000000000000e+00  3.0474198988202799e-04 6.2637263691499941e-04 0.0000000000000000e+00  3.0474198988321747e-04 6.2637263691794941e-04 0.0000000000000000e+00  3.0474198988191979e-04 6.2637263691560753e-04 0.0000000000000000e+00  3.0474198988300123e-04 6.2637263691725455e-04 0.0000000000000000e+00  3.0474198988343377e-04 6.2637263691473920e-04 0.0000000000000000e+00  3.0474198988213609e-04 6.2637263691534798e-04 0.0000000000000000e+00  3.0474198988116285e-04 6.2637263691352489e-04 0.0000000000000000e+00  3.0474198988170354e-04 6.2637263691491267e-04 0.0000000000000000e+00  3.0474198988267678e-04 6.2637263691595513e-04 0.0000000000000000e+00  3.0474198988191984e-04 6.2637263691499941e-04 0.0000000000000000e+00  3.0474198988159540e-04 6.2637263691525961e-04 0.0000000000000000e+00  3.0474198988062211e-04 6.2637263691335304e-04 0.0000000000000000e+00  3.0474198988116285e-04 6.2637263691447899e-04 0.0000000000000000e+00  3.0474198988008147e-04 6.2637263691274426e-04 0.0000000000000000e+00  3.0474198988278493e-04 6.2637263691517450e-04 0.0000000000000000e+00  3.0474198988116285e-04 6.2637263691395857e-04 0.0000000000000000e+00  3.0474198988202799e-04 6.2637263691543309e-04 0.0000000000000000e+00  3.0474198988246053e-04 6.2637263691664739e-04 0.0000000000000000e+00  3.0474198988018962e-04 6.2637263691369836e-04 0.0000000000000000e+00  3.0474198987964893e-04 6.2637263690971197e-04 0.0000000000000000e+00  3.0474198988148730e-04 6.2637263691361163e-04 0.0000000000000000e+00  3.0474198988246053e-04 6.2637263691378510e-04 0.0000000000000000e+00  3.0474198987954078e-04 6.2637263690962176e-04 0.0000000000000000e+00  3.0474198987889194e-04 6.2637263690892787e-04 0.0000000000000000e+00  3.0474198987932448e-04 6.2637263691170343e-04 0.0000000000000000e+00  3.0474198987943263e-04 6.2637263690754356e-04 0.0000000000000000e+00  3.0474198987889194e-04 6.2637263691109628e-04 0.0000000000000000e+00  3.0474198988354192e-04 6.2637263691673413e-04 0.0000000000000000e+00  3.0474198988181169e-04 6.2637263691447899e-04 0.0000000000000000e+00  3.0474198987910824e-04 6.2637263690988197e-04 0.0000000000000000e+00  3.0474198987910824e-04 6.2637263691170343e-04 0.0000000000000000e+00  3.0474198987975708e-04 6.2637263690780377e-04 0.0000000000000000e+00  3.0474198988008147e-04 6.2637263691118301e-04 0.0000000000000000e+00  3.0474198988256868e-04 6.2637263691361163e-04 0.0000000000000000e+00  3.0474198988073031e-04 6.2637263691274426e-04 0.0000000000000000e+00  3.0474198988191984e-04 6.2637263691560656e-04 0.0000000000000000e+00  3.0474198987986517e-04 6.2637263691413204e-04 0.0000000000000000e+00  3.0474198988083846e-04 6.2637263691222732e-04 0.0000000000000000e+00  3.0474198988181169e-04 6.2637263691187690e-04 0.0000000000000000e+00  3.0474198987954078e-04 6.2637263690918808e-04 0.0000000000000000e+00  3.0474198987878379e-04 6.2637263691066260e-04 0.0000000000000000e+00  3.0474198988094661e-04 -4.3144166462623005e-04 0.0000000000000000e+00  -1.3869413702614485e-03 -3.1867621624476375e-03 0.0000000000000000e+00  -1.3869413702640126e-03 -3.1867621624427802e-03 0.0000000000000000e+00  -1.3869413702647202e-03 -3.1867621624446893e-03 0.0000000000000000e+00  -1.3869413702648969e-03 -3.1867621624452952e-03 0.0000000000000000e+00  -1.3869413702630401e-03 -3.1867621624430400e-03 0.0000000000000000e+00  -1.3869413702628632e-03 -3.1867621624410477e-03 0.0000000000000000e+00  -1.3869413702673728e-03 -3.1867621624448597e-03 0.0000000000000000e+00  -1.3869413702594150e-03 -3.1867621624410477e-03 0.0000000000000000e+00  -1.3869413702644548e-03 -3.1867621624419151e-03 0.0000000000000000e+00  -1.3869413702664885e-03 -3.1867621624430383e-03 0.0000000000000000e+00  -1.3869413702615370e-03 -3.1867621624413946e-03 0.0000000000000000e+00  -1.3869413702625980e-03 -3.1867621624404405e-03 0.0000000000000000e+00  -1.3869413702675495e-03 -3.1867621624448597e-03 0.0000000000000000e+00  -1.3869413702624212e-03 -3.1867621624411301e-03 0.0000000000000000e+00  -1.3869413702625095e-03 -3.1867621624442613e-03 0.0000000000000000e+00  -1.3869413702659579e-03 -3.1867621624425179e-03 0.0000000000000000e+00  -1.3869413702642780e-03 -3.1867621624447730e-03 0.0000000000000000e+00  -1.3869413702616254e-03 -3.1867621624438276e-03 0.0000000000000000e+00  -1.3869413702645432e-03 -3.1867621624406964e-03 0.0000000000000000e+00  -1.3869413702624212e-03 -3.1867621624427781e-03 0.0000000000000000e+00  -1.3869413702613600e-03 -3.1867621624393173e-03 0.0000000000000000e+00  -1.3869413702652506e-03 -3.1867621624431250e-03 0.0000000000000000e+00  -1.3869413702651621e-03 -3.1867621624469414e-03 0.0000000000000000e+00  -1.3869413702633053e-03 -3.1867621624443480e-03 0.0000000000000000e+00  -1.3869413702647202e-03 -3.1867621624415638e-03 0.0000000000000000e+00  -1.3869413702648084e-03 -3.1867621624468547e-03 0.0000000000000000e+00  -1.3869413702625980e-03 -3.1867621624406097e-03 0.0000000000000000e+00  -1.3869413702642780e-03 -3.1867621624464210e-03 0.0000000000000000e+00  -1.3869413702637474e-03 -3.1867621624393260e-03 0.0000000000000000e+00  -1.3869413702632170e-03 -3.1867621624465945e-03 0.0000000000000000e+00  -1.3869413702645432e-03 -3.1867621624451200e-03 0.0000000000000000e+00  -1.3869413702643663e-03 -3.1867621624447730e-03 0.0000000000000000e+00  -1.3869413702643663e-03 -3.1867621624483292e-03 0.0000000000000000e+00  -1.3869413702655158e-03 -3.1867621624478088e-03 0.0000000000000000e+00  -1.3869413702602106e-03 -3.1867621624351626e-03 0.0000000000000000e+00  -1.3869413702645432e-03 -3.1867621624479823e-03 0.0000000000000000e+00  -1.3869413702645432e-03 -3.1867621624460741e-03 0.0000000000000000e+00  -1.3869413702631286e-03 -3.1867621624411301e-03 0.0000000000000000e+00  -1.3869413702635707e-03 -3.1867621624466812e-03 0.0000000000000000e+00  -1.3869413702656042e-03 -3.1867621624462475e-03 0.0000000000000000e+00  -1.3869413702631286e-03 -3.1867621624394995e-03 0.0000000000000000e+00  -1.3869413702643663e-03 -3.1867621624461608e-03 0.0000000000000000e+00  -1.3869413702631286e-03 -3.1867621624459006e-03 0.0000000000000000e+00  -1.3869413702651621e-03 -3.1867621624488496e-03 0.0000000000000000e+00  -1.3869413702626864e-03 -3.1867621624419975e-03 0.0000000000000000e+00  -1.3869413702630401e-03 -3.1867621624413903e-03 0.0000000000000000e+00  -1.3869413702645432e-03 -3.1867621624419281e-03 0.0000000000000000e+00  -1.3869413702640126e-03 -3.1867621624445995e-03 0.0000000000000000e+00  -1.3869413702639244e-03 -3.1867621624442526e-03 0.0000000000000000e+00  -1.3869413702641896e-03 -3.1867621624472884e-03 0.0000000000000000e+00  -1.3869413702614485e-03 2.1774266940938260e-04 0.0000000000000000e+00  -4.1056422872828483e-04 -8.5612542545521197e-04 0.0000000000000000e+00  -4.1056422872776224e-04 -8.5612542545226294e-04 0.0000000000000000e+00  -4.1056422872901645e-04 -8.5612542545590597e-04 0.0000000000000000e+00  -4.1056422872776224e-04 -8.5612542545174242e-04 0.0000000000000000e+00  -4.1056422873047963e-04 -8.5612542546128340e-04 0.0000000000000000e+00  -4.1056422872797128e-04 -8.5612542545885544e-04 0.0000000000000000e+00  -4.1056422873100216e-04 -8.5612542546006833e-04 0.0000000000000000e+00  -4.1056422872619454e-04 -8.5612542545902891e-04 0.0000000000000000e+00  -4.1056422872859838e-04 -8.5612542545954933e-04 0.0000000000000000e+00  -4.1056422873068861e-04 -8.5612542545763972e-04 0.0000000000000000e+00  -4.1056422872734423e-04 -8.5612542545989627e-04 0.0000000000000000e+00  -4.1056422872818031e-04 -8.5612542545937585e-04 0.0000000000000000e+00  -4.1056422873079313e-04 -8.5612542545781319e-04 0.0000000000000000e+00  -4.1056422873006151e-04 -8.5612542546058875e-04 0.0000000000000000e+00  -4.1056422872943446e-04 -8.5612542545920346e-04 0.0000000000000000e+00  -4.1056422872932995e-04 -8.5612542545816014e-04 0.0000000000000000e+00  -4.1056422872953898e-04 -8.5612542545885403e-04 0.0000000000000000e+00  -4.1056422872985248e-04 -8.5612542545746874e-04 0.0000000000000000e+00  -4.1056422872953898e-04 -8.5612542545763972e-04 0.0000000000000000e+00  -4.1056422873006151e-04 -8.5612542546128264e-04 0.0000000000000000e+00  -4.1056422872912091e-04 -8.5612542545590749e-04 0.0000000000000000e+00  -4.1056422872974796e-04 -8.5612542545746625e-04 0.0000000000000000e+00  -4.1056422872985248e-04 -8.5612542546058875e-04 0.0000000000000000e+00  -4.1056422872943446e-04 -8.5612542545642791e-04 0.0000000000000000e+00  -4.1056422872974796e-04 -8.5612542545694583e-04 0.0000000000000000e+00  -4.1056422873006151e-04 -8.5612542546006833e-04 0.0000000000000000e+00  -4.1056422872964350e-04 -8.5612542545746625e-04 0.000000000