<?xml version="1.0"?>
<VTKFile type="UnstructuredGrid"  version="0.1"  >
<UnstructuredGrid>
<Piece  NumberOfPoints="2601" NumberOfCells="5000">
<Points>
<DataArray  type="Float64"  NumberOfComponents="3"  format="ascii">0 0 0  0.02 0 0  0.04 0 0  0.06 0 0  0.08 0 0  0.1 0 0  0.12 0 0  0.14 0 0  0.16 0 0  0.18 0 0  0.2 0 0  0.22 0 0  0.24 0 0  0.26 0 0  0.28 0 0  0.3 0 0  0.32 0 0  0.34 0 0  0.36 0 0  0.38 0 0  0.4 0 0  0.42 0 0  0.44 0 0  0.46 0 0  0.48 0 0  0.5 0 0  0.52 0 0  0.54 0 0  0.5600000000000001 0 0  0.58 0 0  0.6 0 0  0.62 0 0  0.64 0 0  0.66 0 0  0.68 0 0  0.7 0 0  0.72 0 0  0.74 0 0  0.76 0 0  0.78 0 0  0.8 0 0  0.82 0 0  0.84 0 0  0.86 0 0  0.88 0 0  0.9 0 0  0.92 0 0  0.9399999999999999 0 0  0.96 0 0  0.98 0 0  1 0 0  0 0.01313563088723984 0  0.02 0.01313563088723984 0  0.04 0.01313563088723984 0  0.06 0.01313563088723984 0  0.08 0.01313563088723984 0  0.1 0.01313563088723984 0  0.12 0.01313563088723984 0  0.14 0.01313563088723984 0  0.16 0.01313563088723984 0  0.18 0.01313563088723984 0  0.2 0.01313563088723984 0  0.22 0.01313563088723984 0  0.24 0.01313563088723984 0  0.26 0.01313563088723984 0  0.28 0.01313563088723984 0  0.3 0.01313563088723984 0  0.32 0.01313563088723984 0  0.34 0.01313563088723984 0  0.36 0.01313563088723984 0  0.38 0.01313563088723984 0  0.4 0.01313563088723984 0  0.42 0.01313563088723984 0  0.44 0.01313563088723984 0  0.46 0.01313563088723984 0  0.48 0.01313563088723984 0  0.5 0.01313563088723984 0  0.52 0.01313563088723984 0  0.54 0.01313563088723984 0  0.5600000000000001 0.01313563088723984 0  0.58 0.01313563088723984 0  0.6 0.01313563088723984 0  0.62 0.01313563088723984 0  0.64 0.01313563088723984 0  0.66 0.01313563088723984 0  0.68 0.01313563088723984 0  0.7 0.01313563088723984 0  0.72 0.01313563088723984 0  0.74 0.01313563088723984 0  0.76 0.01313563088723984 0  0.78 0.01313563088723984 0  0.8 0.01313563088723984 0  0.82 0.01313563088723984 0  0.84 0.01313563088723984 0  0.86 0.01313563088723984 0  0.88 0.01313563088723984 0  0.9 0.01313563088723984 0  0.92 0.01313563088723984 0  0.9399999999999999 0.01313563088723984 0  0.96 0.01313563088723984 0  0.98 0.01313563088723984 0  1 0.01313563088723984 0  0 0.02664639863733726 0  0.02 0.02664639863733726 0  0.04 0.02664639863733726 0  0.06 0.02664639863733726 0  0.08 0.02664639863733726 0  0.1 0.02664639863733726 0  0.12 0.02664639863733726 0  0.14 0.02664639863733726 0  0.16 0.02664639863733726 0  0.18 0.02664639863733726 0  0.2 0.02664639863733726 0  0.22 0.02664639863733726 0  0.24 0.02664639863733726 0  0.26 0.02664639863733726 0  0.28 0.02664639863733726 0  0.3 0.02664639863733726 0  0.32 0.02664639863733726 0  0.34 0.02664639863733726 0  0.36 0.02664639863733726 0  0.38 0.02664639863733726 0  0.4 0.02664639863733726 0  0.42 0.02664639863733726 0  0.44 0.02664639863733726 0  0.46 0.02664639863733726 0  0.48 0.02664639863733726 0  0.5 0.02664639863733726 0  0.52 0.02664639863733726 0  0.54 0.02664639863733726 0  0.5600000000000001 0.02664639863733726 0  0.58 0.02664639863733726 0  0.6 0.02664639863733726 0  0.62 0.02664639863733726 0  0.64 0.02664639863733726 0  0.66 0.02664639863733726 0  0.68 0.02664639863733726 0  0.7 0.02664639863733726 0  0.72 0.02664639863733726 0  0.74 0.02664639863733726 0  0.76 0.02664639863733726 0  0.78 0.02664639863733726 0  0.8 0.02664639863733726 0  0.82 0.02664639863733726 0  0.84 0.02664639863733726 0  0.86 0.02664639863733726 0  0.88 0.02664639863733726 0  0.9 0.02664639863733726 0  0.92 0.02664639863733726 0  0.9399999999999999 0.02664639863733726 0  0.96 0.02664639863733726 0  0.98 0.02664639863733726 0  1 0.02664639863733726 0  0 0.04101652939099896 0  0.02 0.04101652939099896 0  0.04 0.04101652939099896 0  0.06 0.04101652939099896 0  0.08 0.04101652939099896 0  0.1 0.04101652939099896 0  0.12 0.04101652939099896 0  0.14 0.04101652939099896 0  0.16 0.04101652939099896 0  0.18 0.04101652939099896 0  0.2 0.04101652939099896 0  0.22 0.04101652939099896 0  0.24 0.04101652939099896 0  0.26 0.04101652939099896 0  0.28 0.04101652939099896 0  0.3 0.04101652939099896 0  0.32 0.04101652939099896 0  0.34 0.04101652939099896 0  0.36 0.04101652939099896 0  0.38 0.04101652939099896 0  0.4 0.04101652939099896 0  0.42 0.04101652939099896 0  0.44 0.04101652939099896 0  0.46 0.04101652939099896 0  0.48 0.04101652939099896 0  0.5 0.04101652939099896 0  0.52 0.04101652939099896 0  0.54 0.04101652939099896 0  0.5600000000000001 0.04101652939099896 0  0.58 0.04101652939099896 0  0.6 0.04101652939099896 0  0.62 0.04101652939099896 0  0.64 0.04101652939099896 0  0.66 0.04101652939099896 0  0.68 0.04101652939099896 0  0.7 0.04101652939099896 0  0.72 0.04101652939099896 0  0.74 0.04101652939099896 0  0.76 0.04101652939099896 0  0.78 0.04101652939099896 0  0.8 0.04101652939099896 0  0.82 0.04101652939099896 0  0.84 0.04101652939099896 0  0.86 0.04101652939099896 0  0.88 0.04101652939099896 0  0.9 0.04101652939099896 0  0.92 0.04101652939099896 0  0.9399999999999999 0.04101652939099896 0  0.96 0.04101652939099896 0  0.98 0.04101652939099896 0  1 0.04101652939099896 0  0 0.05705811164099547 0  0.02 0.05705811164099547 0  0.04 0.05705811164099547 0  0.06 0.05705811164099547 0  0.08 0.05705811164099547 0  0.1 0.05705811164099547 0  0.12 0.05705811164099547 0  0.14 0.05705811164099547 0  0.16 0.05705811164099547 0  0.18 0.05705811164099547 0  0.2 0.05705811164099547 0  0.22 0.05705811164099547 0  0.24 0.05705811164099547 0  0.26 0.05705811164099547 0  0.28 0.05705811164099547 0  0.3 0.05705811164099547 0  0.32 0.05705811164099547 0  0.34 0.05705811164099547 0  0.36 0.05705811164099547 0  0.38 0.05705811164099547 0  0.4 0.05705811164099547 0  0.42 0.05705811164099547 0  0.44 0.05705811164099547 0  0.46 0.05705811164099547 0  0.48 0.05705811164099547 0  0.5 0.05705811164099547 0  0.52 0.05705811164099547 0  0.54 0.05705811164099547 0  0.5600000000000001 0.05705811164099547 0  0.58 0.05705811164099547 0  0.6 0.05705811164099547 0  0.62 0.05705811164099547 0  0.64 0.05705811164099547 0  0.66 0.05705811164099547 0  0.68 0.05705811164099547 0  0.7 0.05705811164099547 0  0.72 0.05705811164099547 0  0.74 0.05705811164099547 0  0.76 0.05705811164099547 0  0.78 0.05705811164099547 0  0.8 0.05705811164099547 0  0.82 0.05705811164099547 0  0.84 0.05705811164099547 0  0.86 0.05705811164099547 0  0.88 0.05705811164099547 0  0.9 0.05705811164099547 0  0.92 0.05705811164099547 0  0.9399999999999999 0.05705811164099547 0  0.96 0.05705811164099547 0  0.98 0.05705811164099547 0  1 0.05705811164099547 0  0 0.07667714377545 0  0.02 0.07667714377545 0  0.04 0.07667714377545 0  0.06 0.07667714377545 0  0.08 0.07667714377545 0  0.1 0.07667714377545 0  0.12 0.07667714377545 0  0.14 0.07667714377545 0  0.16 0.07667714377545 0  0.18 0.07667714377545 0  0.2 0.07667714377545 0  0.22 0.07667714377545 0  0.24 0.07667714377545 0  0.26 0.07667714377545 0  0.28 0.07667714377545 0  0.3 0.07667714377545 0  0.32 0.07667714377545 0  0.34 0.07667714377545 0  0.36 0.07667714377545 0  0.38 0.07667714377545 0  0.4 0.07667714377545 0  0.42 0.07667714377545 0  0.44 0.07667714377545 0  0.46 0.07667714377545 0  0.48 0.07667714377545 0  0.5 0.07667714377545 0  0.52 0.07667714377545 0  0.54 0.07667714377545 0  0.5600000000000001 0.07667714377545 0  0.58 0.07667714377545 0  0.6 0.07667714377545 0  0.62 0.07667714377545 0  0.64 0.07667714377545 0  0.66 0.07667714377545 0  0.68 0.07667714377545 0  0.7 0.07667714377545 0  0.72 0.07667714377545 0  0.74 0.07667714377545 0  0.76 0.07667714377545 0  0.78 0.07667714377545 0  0.8 0.07667714377545 0  0.82 0.07667714377545 0  0.84 0.07667714377545 0  0.86 0.07667714377545 0  0.88 0.07667714377545 0  0.9 0.07667714377545 0  0.92 0.07667714377545 0  0.9399999999999999 0.07667714377545 0  0.96 0.07667714377545 0  0.98 0.07667714377545 0  1 0.07667714377545 0  0 0.1098730133816912 0  0.02 0.1098730133816912 0  0.04 0.1098730133816912 0  0.06 0.1098730133816912 0  0.08 0.1098730133816912 0  0.1 0.1098730133816912 0  0.12 0.1098730133816912 0  0.14 0.1098730133816912 0  0.16 0.1098730133816912 0  0.18 0.1098730133816912 0  0.2 0.1098730133816912 0  0.22 0.1098730133816912 0  0.24 0.1098730133816912 0  0.26 0.1098730133816912 0  0.28 0.1098730133816912 0  0.3 0.1098730133816912 0  0.32 0.1098730133816912 0  0.34 0.1098730133816912 0  0.36 0.1098730133816912 0  0.38 0.1098730133816912 0  0.4 0.1098730133816912 0  0.42 0.1098730133816912 0  0.44 0.1098730133816912 0  0.46 0.1098730133816912 0  0.48 0.1098730133816912 0  0.5 0.1098730133816912 0  0.52 0.1098730133816912 0  0.54 0.1098730133816912 0  0.5600000000000001 0.1098730133816912 0  0.58 0.1098730133816912 0  0.6 0.1098730133816912 0  0.62 0.1098730133816912 0  0.64 0.1098730133816912 0  0.66 0.1098730133816912 0  0.68 0.1098730133816912 0  0.7 0.1098730133816912 0  0.72 0.1098730133816912 0  0.74 0.1098730133816912 0  0.76 0.1098730133816912 0  0.78 0.1098730133816912 0  0.8 0.1098730133816912 0  0.82 0.1098730133816912 0  0.84 0.1098730133816912 0  0.86 0.1098730133816912 0  0.88 0.1098730133816912 0  0.9 0.1098730133816912 0  0.92 0.1098730133816912 0  0.9399999999999999 0.1098730133816912 0  0.96 0.1098730133816912 0  0.98 0.1098730133816912 0  1 0.1098730133816912 0  0 0.1603283563168221 0  0.02 0.1603283563168221 0  0.04 0.1603283563168221 0  0.06 0.1603283563168221 0  0.08 0.1603283563168221 0  0.1 0.1603283563168221 0  0.12 0.1603283563168221 0  0.14 0.1603283563168221 0  0.16 0.1603283563168221 0  0.18 0.1603283563168221 0  0.2 0.1603283563168221 0  0.22 0.1603283563168221 0  0.24 0.1603283563168221 0  0.26 0.1603283563168221 0  0.28 0.1603283563168221 0  0.3 0.1603283563168221 0  0.32 0.1603283563168221 0  0.34 0.1603283563168221 0  0.36 0.1603283563168221 0  0.38 0.1603283563168221 0  0.4 0.1603283563168221 0  0.42 0.1603283563168221 0  0.44 0.1603283563168221 0  0.46 0.1603283563168221 0  0.48 0.1603283563168221 0  0.5 0.1603283563168221 0  0.52 0.1603283563168221 0  0.54 0.1603283563168221 0  0.5600000000000001 0.1603283563168221 0  0.58 0.1603283563168221 0 
[...]
<PointData  Vectors="u_paraw"> 
<DataArray  type="Float64"  Name="u_paraw"  NumberOfComponents="3" format="ascii">4.7408358288664827e-04 8.1391406458030530e-04 0.0000000000000000e+00  4.7408358289034605e-04 8.1391406458196413e-04 0.0000000000000000e+00  4.7408358288915739e-04 8.1391406457717195e-04 0.0000000000000000e+00  4.7408358288938859e-04 8.1391406458061950e-04 0.0000000000000000e+00  4.7408358289488571e-04 8.1391406458477199e-04 0.0000000000000000e+00  4.7408358289046152e-04 8.1391406458668073e-04 0.0000000000000000e+00  4.7408358289153450e-04 8.1391406458319925e-04 0.0000000000000000e+00  4.7408358289046152e-04 8.1391406458161751e-04 0.0000000000000000e+00  4.7408358288788627e-04 8.1391406458028394e-04 0.0000000000000000e+00  4.7408358289584306e-04 8.1391406458807816e-04 0.0000000000000000e+00  4.7408358289826973e-04 8.1391406458274508e-04 0.0000000000000000e+00  4.7408358289141898e-04 8.1391406457735659e-04 0.0000000000000000e+00  4.7408358288897578e-04 8.1391406458459787e-04 0.0000000000000000e+00  4.7408358289194720e-04 8.1391406458390398e-04 0.0000000000000000e+00  4.7408358288968566e-04 8.1391406458470868e-04 0.0000000000000000e+00  4.7408358289666847e-04 8.1391406458233189e-04 0.0000000000000000e+00  4.7408358289277260e-04 8.1391406458095495e-04 0.0000000000000000e+00  4.7408358289480304e-04 8.1391406458246438e-04 0.0000000000000000e+00  4.7408358289151802e-04 8.1391406458144284e-04 0.0000000000000000e+00  4.7408358289052755e-04 8.1391406458276557e-04 0.0000000000000000e+00  4.7408358289125391e-04 8.1391406457490749e-04 0.0000000000000000e+00  4.7408358288702790e-04 8.1391406458016348e-04 0.0000000000000000e+00  4.7408358289516625e-04 8.1391406457944791e-04 0.0000000000000000e+00  4.7408358289331736e-04 8.1391406458188975e-04 0.0000000000000000e+00  4.7408358288635109e-04 8.1391406457918770e-04 0.0000000000000000e+00  4.7408358288985073e-04 8.1391406457888412e-04 0.0000000000000000e+00  4.7408358289051101e-04 8.1391406457878655e-04 0.0000000000000000e+00  4.7408358288971868e-04 8.1391406458130190e-04 0.0000000000000000e+00  4.7408358288917392e-04 8.1391406458013551e-04 0.0000000000000000e+00  4.7408358289295421e-04 8.1391406457333301e-04 0.0000000000000000e+00  4.7408358289092371e-04 8.1391406457624951e-04 0.0000000000000000e+00  4.7408358289445642e-04 8.1391406457890581e-04 0.0000000000000000e+00  4.7408358288965265e-04 8.1391406457660730e-04 0.0000000000000000e+00  4.7408358288838153e-04 8.1391406457383174e-04 0.0000000000000000e+00  4.7408358289323480e-04 8.1391406457835742e-04 0.0000000000000000e+00  4.7408358289082467e-04 8.1391406458034780e-04 0.0000000000000000e+00  4.7408358289465451e-04 8.1391406457970812e-04 0.0000000000000000e+00  4.7408358288859615e-04 8.1391406457809266e-04 0.0000000000000000e+00  4.7408358289452245e-04 8.1391406458044538e-04 0.0000000000000000e+00  4.7408358289661892e-04 8.1391406458086821e-04 0.0000000000000000e+00  4.7408358289173264e-04 8.1391406457797795e-04 0.0000000000000000e+00  4.7408358288933899e-04 8.1391406457593509e-04 0.0000000000000000e+00  4.7408358289252497e-04 8.1391406457086103e-04 0.0000000000000000e+00  4.7408358289094025e-04 8.1391406457974064e-04 0.0000000000000000e+00  4.7408358288532760e-04 8.1391406457545805e-04 0.0000000000000000e+00  4.7408358289249196e-04 8.1391406457242228e-04 0.0000000000000000e+00  4.7408358289257452e-04 8.1391406458067761e-04 0.0000000000000000e+00  4.7408358289670148e-04 8.1391406457913349e-04 0.0000000000000000e+00  4.7408358289526529e-04 8.1391406457916602e-04 0.0000000000000000e+00  4.7408358288905834e-04 8.1391406458129105e-04 0.0000000000000000e+00  4.7408358288664822e-04 1.6455467572775804e-16 0.0000000000000000e+00  2.3629489072211532e-05 -1.1931843131730410e-04 0.0000000000000000e+00  2.3629489065085572e-05 -1.1931843132608613e-04 0.0000000000000000e+00  2.3629489067236199e-05 -1.1931843131897382e-04 0.0000000000000000e+00  2.3629489074233765e-05 -1.1931843131856177e-04 0.0000000000000000e+00  2.3629489069226337e-05 -1.1931843131344434e-04 0.0000000000000000e+00  2.3629489070510293e-05 -1.1931843132296373e-04 0.0000000000000000e+00  2.3629489073495492e-05 -1.1931843131327080e-04 0.0000000000000000e+00  2.3629489065855952e-05 -1.1931843131923407e-04 0.0000000000000000e+00  2.3629489069739920e-05 -1.1931843131975449e-04 0.0000000000000000e+00  2.3629489072853515e-05 -1.1931843133001088e-04 0.0000000000000000e+00  2.3629489067974480e-05 -1.1931843132359256e-04 0.0000000000000000e+00  2.3629489070927579e-05 -1.1931843132337572e-04 0.0000000000000000e+00  2.3629489071537460e-05 -1.1931843132213957e-04 0.0000000000000000e+00  2.3629489074907844e-05 -1.1931843131639330e-04 0.0000000000000000e+00  2.3629489070959678e-05 -1.1931843131515762e-04 0.0000000000000000e+00  2.3629489072853515e-05 -1.1931843132109874e-04 0.0000000000000000e+00  2.3629489071409063e-05 -1.1931843132981572e-04 0.0000000000000000e+00  2.3629489079658483e-05 -1.1931843131296753e-04 0.0000000000000000e+00  2.3629489070799182e-05 -1.1931843132628122e-04 0.0000000000000000e+00  2.3629489070638690e-05 -1.1931843132552228e-04 0.0000000000000000e+00  2.3629489065502865e-05 -1.1931843132836320e-04 0.0000000000000000e+00  2.3629489068263369e-05 -1.1931843132829784e-04 0.0000000000000000e+00  2.3629489071986845e-05 -1.1931843132411282e-04 0.0000000000000000e+00  2.3629489071922646e-05 -1.1931843132647669e-04 0.0000000000000000e+00  2.3629489076191801e-05 -1.1931843131381290e-04 0.0000000000000000e+00  2.3629489067653492e-05 -1.1931843132324546e-04 0.0000000000000000e+00  2.3629489070285603e-05 -1.1931843132331051e-04 0.0000000000000000e+00  2.3629489069900416e-05 -1.1931843132393935e-04 0.0000000000000000e+00  2.3629489069418932e-05 -1.1931843132129453e-04 0.0000000000000000e+00  2.3629489073046107e-05 -1.1931843131903875e-04 0.0000000000000000e+00  2.3629489072725118e-05 -1.1931843132270336e-04 0.0000000000000000e+00  2.3629489073367095e-05 -1.1931843132667153e-04 0.0000000000000000e+00  2.3629489072725118e-05 -1.1931843132387429e-04 0.0000000000000000e+00  2.3629489071312766e-05 -1.1931843132682332e-04 0.0000000000000000e+00  2.3629489073463392e-05 -1.1931843132439535e-04 0.0000000000000000e+00  2.3629489068648556e-05 -1.1931843132437303e-04 0.0000000000000000e+00  2.3629489072853515e-05 -1.1931843132554396e-04 0.0000000000000000e+00  2.3629489069162139e-05 -1.1931843132593428e-04 0.0000000000000000e+00  2.3629489071762150e-05 -1.1931843132977235e-04 0.0000000000000000e+00  2.3629489073174503e-05 -1.1931843132064337e-04 0.0000000000000000e+00  2.3629489072885614e-05 -1.1931843132279073e-04 0.0000000000000000e+00  2.3629489066722623e-05 -1.1931843132925194e-04 0.0000000000000000e+00  2.3629489076962174e-05 -1.1931843132747384e-04 0.0000000000000000e+00  2.3629489071152273e-05 -1.1931843132962056e-04 0.0000000000000000e+00  2.3629489066144841e-05 -1.1931843132547891e-04 0.0000000000000000e+00  2.3629489074394261e-05 -1.1931843131472363e-04 0.0000000000000000e+00  2.3629489075806614e-05 -1.1931843132216189e-04 0.0000000000000000e+00  2.3629489069579424e-05 -1.1931843132591259e-04 0.0000000000000000e+00  2.3629489074939944e-05 -1.1931843132129389e-04 0.0000000000000000e+00  2.3629489069097940e-05 -1.1931843132797258e-04 0.0000000000000000e+00  2.3629489072211535e-05 -2.4886728562436628e-04 0.0000000000000000e+00  -2.4866737233817179e-04 -5.5165474512324647e-04 0.0000000000000000e+00  -2.4866737233503314e-04 -5.5165474511782546e-04 0.0000000000000000e+00  -2.4866737233799073e-04 -5.5165474512324658e-04 0.0000000000000000e+00  -2.4866737233491241e-04 -5.5165474511604715e-04 0.0000000000000000e+00  -2.4866737233956006e-04 -5.5165474511769514e-04 0.0000000000000000e+00  -2.4866737233919788e-04 -5.5165474512376721e-04 0.0000000000000000e+00  -2.4866737233050627e-04 -5.5165474511478926e-04 0.0000000000000000e+00  -2.4866737234330229e-04 -5.5165474512454784e-04 0.0000000000000000e+00  -2.4866737234215548e-04 -5.5165474512146870e-04 0.0000000000000000e+00  -2.4866737233279990e-04 -5.5165474511665409e-04 0.0000000000000000e+00  -2.4866737233636101e-04 -5.5165474511812936e-04 0.0000000000000000e+00  -2.4866737233672319e-04 -5.5165474512107839e-04 0.0000000000000000e+00  -2.4866737233551599e-04 -5.5165474511903933e-04 0.0000000000000000e+00  -2.4866737234336263e-04 -5.5165474513226660e-04 0.0000000000000000e+00  -2.4866737233986185e-04 -5.5165474512888541e-04 0.0000000000000000e+00  -2.4866737233925827e-04 -5.5165474512567465e-04 0.0000000000000000e+00  -2.4866737234082760e-04 -5.5165474512788642e-04 0.0000000000000000e+00  -2.4866737233581783e-04 -5.5165474512654353e-04 0.0000000000000000e+00  -2.4866737233660246e-04 -5.5165474512905736e-04 0.0000000000000000e+00  -2.4866737234155190e-04 -5.5165474513074872e-04 0.0000000000000000e+00  -2.4866737234076721e-04 -5.5165474512029852e-04 0.0000000000000000e+00  -2.4866737233811146e-04 -5.5165474512636854e-04 0.0000000000000000e+00  -2.4866737233756822e-04 -5.5165474513309059e-04 0.0000000000000000e+00  -2.4866737233949967e-04 -5.5165474513513041e-04 0.0000000000000000e+00  -2.4866737233998257e-04 -5.5165474513569268e-04 0.0000000000000000e+00  -2.4866737234022397e-04 -5.5165474512372309e-04 0.0000000000000000e+00  -2.4866737234366441e-04 -5.5165474513187629e-04 0.0000000000000000e+00  -2.4866737234197436e-04 -5.5165474513317733e-04 0.0000000000000000e+00  -2.4866737234203475e-04 -5.5165474513105533e-04 0.0000000000000000e+00  -2.4866737233907716e-04 -5.5165474512654201e-04 0.0000000000000000e+00  -2.4866737233919788e-04 -5.5165474513061861e-04 0.0000000000000000e+00  -2.4866737233642140e-04 -5.5165474512519760e-04 0.0000000000000000e+00  -2.4866737233442956e-04 -5.5165474512975125e-04 0.0000000000000000e+00  -2.4866737234094827e-04 -5.5165474513174618e-04 0.0000000000000000e+00  -2.4866737233787000e-04 -5.5165474512827977e-04 0.0000000000000000e+00  -2.4866737234131045e-04 -5.5165474513499879e-04 0.0000000000000000e+00  -2.4866737233901682e-04 -5.5165474513061861e-04 0.0000000000000000e+00  -2.4866737234155190e-04 -5.5165474514011622e-04 0.0000000000000000e+00  -2.4866737233467101e-04 -5.5165474512307256e-04 0.0000000000000000e+00  -2.4866737233974112e-04 -5.5165474513590952e-04 0.0000000000000000e+00  -2.4866737233521420e-04 -5.5165474512468022e-04 0.0000000000000000e+00  -2.4866737234209509e-04 -5.5165474512927420e-04 0.0000000000000000e+00  -2.4866737234010324e-04 -5.5165474513504216e-04 0.0000000000000000e+00  -2.4866737233768894e-04 -5.5165474513478195e-04 0.0000000000000000e+00  -2.4866737234076721e-04 -5.5165474512576139e-04 0.0000000000000000e+00  -2.4866737233980146e-04 -5.5165474512524097e-04 0.0000000000000000e+00  -2.4866737233611961e-04 -5.5165474513222627e-04 0.0000000000000000e+00  -2.4866737234173296e-04 -5.5165474512966451e-04 0.0000000000000000e+00  -2.4866737233660246e-04 -5.5165474513144261e-04 0.0000000000000000e+00  -2.4866737234137079e-04 -5.5165474512853694e-04 0.0000000000000000e+00  -2.4866737233817179e-04 -9.6764987636739505e-05 0.0000000000000000e+00  2.6414567921252761e-04 8.7479590125186246e-04 0.0000000000000000e+00  2.6414567920441718e-04 8.7479590124527051e-04 0.0000000000000000e+00  2.6414567921058114e-04 8.7479590125030132e-04 0.0000000000000000e+00  2.6414567921469043e-04 8.7479590125108173e-04 0.0000000000000000e+00  2.6414567921058114e-04 8.7479590125246951e-04 0.0000000000000000e+00  2.6414567920517412e-04 8.7479590124587810e-04 0.0000000000000000e+00  2.6414567921177067e-04 8.7479590124839226e-04 0.0000000000000000e+00  2.6414567920182182e-04 8.7479590124769956e-04 0.0000000000000000e+00  2.6414567920960785e-04 8.7479590125645991e-04 0.0000000000000000e+00  2.6414567921144623e-04 8.7479590125498421e-04 0.0000000000000000e+00  2.6414567920593111e-04 8.7479590124587810e-04 0.0000000000000000e+00  2.6414567921490668e-04 8.7479590124986796e-04 0.0000000000000000e+00  2.6414567920387649e-04 8.7479590124882594e-04 0.0000000000000000e+00  2.6414567920257881e-04 8.7479590124813205e-04 0.0000000000000000e+00  2.6414567920982410e-04 8.7479590124631286e-04 0.0000000000000000e+00  2.6414567921263576e-04 8.7479590125125455e-04 0.0000000000000000e+00  2.6414567919987535e-04 8.7479590123919822e-04 0.0000000000000000e+00  2.6414567920906716e-04 8.7479590125255787e-04 0.0000000000000000e+00  2.6414567920463348e-04 8.7479590124362177e-04 0.0000000000000000e+00  2.6414567920712069e-04 8.7479590123642266e-04 0.0000000000000000e+00  2.6414567921090554e-04 8.7479590125073641e-04 0.0000000000000000e+00  2.6414567920787763e-04 8.7479590124821878e-04 0.0000000000000000e+00  2.6414567920333580e-04 8.7479590124388198e-04 0.0000000000000000e+00  2.6414567921393339e-04 8.7479590124761391e-04 0.0000000000000000e+00  2.6414567921004045e-04 8.7479590124622385e-04 0.0000000000000000e+00  2.6414567921274391e-04 8.7479590124978004e-04 0.0000000000000000e+00  2.6414567920647185e-04 8.7479590124422892e-04 0.0000000000000000e+00  2.6414567920376834e-04 8.7479590124526975e-04 0.0000000000000000e+00  2.6414567920430903e-04 8.7479590123642754e-04 0.0000000000000000e+00  2.6414567920982415e-04 8.7479590125177497e-04 0.0000000000000000e+00  2.6414567920625556e-04 8.7479590124344829e-04 0.0000000000000000e+00  2.6414567920895907e-04 8.7479590124587691e-04 0.0000000000000000e+00  2.6414567921166253e-04 8.7479590124561670e-04 0.0000000000000000e+00  2.6414567920798578e-04 8.7479590124683101e-04 0.0000000000000000e+00  2.6414567921112183e-04 8.7479590123842248e-04 0.0000000000000000e+00  2.6414567920452533e-04 8.7479590124206052e-04 0.0000000000000000e+00  2.6414567920484978e-04 8.7479590123798392e-04 0.0000000000000000e+00  2.6414567920463348e-04 8.7479590124154010e-04 0.0000000000000000e+00  2.6414567921241952e-04 8.7479590124700448e-04 0.0000000000000000e+00  2.6414567921068929e-04 8.7479590124648406e-04 0.0000000000000000e+00  2.6414567920787763e-04 8.7479590124197866e-04 0.0000000000000000e+00  2.6414567920495787e-04 8.7479590124171357e-04 0.0000000000000000e+00  2.6414567920852647e-04 8.7479590124171357e-04 0.0000000000000000e+00  2.6414567921112183e-04 8.7479590124336156e-04 0.0000000000000000e+00  2.6414567921339275e-04 8.7479590124275440e-04 0.0000000000000000e+00  2.6414567920506602e-04 8.7479590124414218e-04 0.0000000000000000e+00  2.6414567920636370e-04 8.7479590123807553e-04 0.0000000000000000e+00  2.6414567920863462e-04 8.7479590124631059e-04 0.0000000000000000e+00  2.6414567921133808e-04 8.7479590124422892e-04 0.0000000000000000e+00  2.6414567920798578e-04 8.7479590124761163e-04 0.0000000000000000e+00  2.6414567921252761e-04 5.9504961899944013e-05 0.0000000000000000e+00  -3.3663713885061193e-04 -1.6303753818315556e-03 0.0000000000000000e+00  -3.3663713885184981e-04 -1.6303753818348516e-03 0.0000000000000000e+00  -3.3663713885105406e-04 -1.6303753818275662e-03 0.0000000000000000e+00  -3.3663713885485609e-04 -1.6303753818384943e-03 0.0000000000000000e+00  -3.3663713885397192e-04 -1.6303753818278257e-03 0.0000000000000000e+00  -3.3663713885644770e-04 -1.6303753818297352e-03 0.0000000000000000e+00  -3.3663713886024978e-04 -1.6303753818316413e-03 0.0000000000000000e+00  -3.3663713885503298e-04 -1.6303753818324241e-03 0.0000000000000000e+00  -3.3663713886007289e-04 -1.6303753818358068e-03 0.0000000000000000e+00  -3.3663713885750870e-04 -1.6303753818275647e-03 0.0000000000000000e+00  -3.3663713886104553e-04 -1.6303753818397099e-03 0.0000000000000000e+00  -3.3663713886051503e-04 -1.6303753818364139e-03 0.0000000000000000e+00  -3.3663713885715503e-04 -1.6303753818323352e-03 0.0000000000000000e+00  -3.3663713885750870e-04 -1.6303753818293861e-03 0.0000000000000000e+00  -3.3663713886369814e-04 -1.6303753818402325e-03 0.0000000000000000e+00  -3.3663713885803925e-04 -1.6303753818399679e-03 0.0000000000000000e+00  -3.3663713885494451e-04 -1.6303753818254830e-03 0.0000000000000000e+00  -3.3663713885786242e-04 -1.6303753818341610e-03 0.0000000000000000e+00  -3.3663713885662453e-04 -1.6303753818300800e-03 0.0000000000000000e+00  -3.3663713886148767e-04 -1.6303753818391873e-03 0.0000000000000000e+00  -3.3663713885945397e-04 -1.6303753818341610e-03 0.0000000000000000e+00  -3.3663713885777400e-04 -1.6303753818381465e-03 0.0000000000000000e+00  -3.3663713885830450e-04 -1.6303753818323352e-03 0.0000000000000000e+00  -3.3663713885998447e-04 -1.6303753818404927e-03 0.0000000000000000e+00  -3.3663713885591714e-04 -1.6303753818326821e-03 0.0000000000000000e+00  -3.3663713885812767e-04 -1.6303753818338964e-03 0.0000000000000000e+00  -3.3663713885768559e-04 -1.6303753818359781e-03 0.0000000000000000e+00  -3.3663713885423717e-04 -1.6303753818324219e-03 0.0000000000000000e+00  -3.3663713885706661e-04 -1.6303753818346859e-03 0.0000000000000000e+00  -3.3663713885715503e-04 -1.6303753818297331e-03 0.0000000000000000e+00  -3.3663713885556348e-04 -1.6303753818330291e-03 0.0000000000000000e+00  -3.3663713885910031e-04 -1.6303753818391006e-03 0.0000000000000000e+00  -3.3663713885706661e-04 -1.6303753818393608e-03 0.0000000000000000e+00  -3.3663713885485609e-04 -1.6303753818269575e-03 0.0000000000000000e+00  -3.3663713884972770e-04 -1.6303753818311297e-03 0.0000000000000000e+00  -3.3663713885733187e-04 -1.6303753818331158e-03 0.0000000000000000e+00  -3.3663713885742028e-04 -1.6303753818325086e-03 0.0000000000000000e+00  -3.3663713886069186e-04 -1.6303753818406618e-03 0.0000000000000000e+00  -3.3663713885264562e-04 -1.6303753818364118e-03 0.0000000000000000e+00  -3.3663713885582873e-04 -1.6303753818308606e-03 0.0000000000000000e+00  -3.3663713885291087e-04 -1.6303753818334716e-03 0.0000000000000000e+00  -3.3663713885503298e-04 -1.6303753818345903e-03 0.0000000000000000e+00  -3.3663713885503298e-04 -1.6303753818275647e-03 0.0000000000000000e+00  -3.3663713885662453e-04 -1.6303753818304270e-03 0.0000000000000000e+00  -3.3663713885512139e-04 -1.6303753818404016e-03 0.0000000000000000e+00  -3.3663713885441401e-04 -1.6303753818298198e-03 0.0000000000000000e+00  -3.3663713885344137e-04 -1.6303753818347727e-03 0.0000000000000000e+00  -3.3663713885202665e-04 -1.6303753818244422e-03 0.0000000000000000e+00  -3.3663713885441401e-04 -1.6303753818391006e-03 0.0000000000000000e+00  -3.3663713885264562e-04 -1.6303753818311209e-03 0.0000000000000000e+00  -3.3663713885061193e-04 4.1827801444289703e-04 0.0000000000000000e+00  9.3989771341871210e-04 3.2920344868288959e-03 0.0000000000000000e+00  9.3989771341014192e-04 3.2920344868165793e-03 0.0000000000000000e+00  9.3989771341285936e-04 3.2920344868197023e-03 0.0000000000000000e+00  9.3989771340648393e-04 3.2920344868179667e-03 0.0000000000000000e+00  9.3989771341055999e-04 3.2920344868172728e-03 0.0000000000000000e+00  9.3989771340543876e-04 3.2920344868049584e-03 0.0000000000000000e+00  9.3989771341024633e-04 3.2920344868091166e-03 0.0000000000000000e+00  9.3989771341160516e-04 3.2920344868146729e-03 0.0000000000000000e+00  9.3989771341400894e-04 3.2920344868190097e-03 0.0000000000000000e+00  9.3989771341191860e-04 3.2920344868184841e-03 0.0000000000000000e+00  9.3989771341317281e-04 3.2920344868229996e-03 0.0000000000000000e+00  9.3989771341442701e-04 3.2920344868171015e-03 0.0000000000000000e+00  9.3989771340899212e-04 3.2920344868101574e-03 0.0000000000000000e+00  9.3989771341003729e-04 3.2920344868115452e-03 0.0000000000000000e+00  9.3989771340836513e-04 3.2920344868174528e-03 0.0000000000000000e+00  9.3989771340836513e-04 3.2920344868134534e-03 0.0000000000000000e+00  9.3989771341087343e-04 3.2920344868202188e-03 0.0000000000000000e+00  9.3989771340543865e-04 3.2920344868103404e-03 0.0000000000000000e+00  9.3989771340554317e-04 3.2920344868065145e-03 0.0000000000000000e+00  9.3989771341045536e-04 3.2920344868164024e-03 0.0000000000000000e+00  9.3989771340742447e-04 3.2920344868145037e-03 0.0000000000000000e+00  9.3989771340836513e-04 3.2920344868179637e-03 0.0000000000000000e+00  9.3989771340784254e-04 3.2920344868124125e-03 0.0000000000000000e+00  9.3989771340585672e-04 3.2920344868146772e-03 0.0000000000000000e+00  9.3989771341108246e-04 3.2920344868061675e-03 0.0000000000000000e+00  9.3989771340794706e-04 3.2920344