<?xml version="1.0"?>
<VTKFile type="UnstructuredGrid"  version="0.1"  >
<UnstructuredGrid>
<Piece  NumberOfPoints="2601" NumberOfCells="5000">
<Points>
<DataArray  type="Float64"  NumberOfComponents="3"  format="ascii">0 0 0  0.02 0 0  0.04 0 0  0.06 0 0  0.08 0 0  0.1 0 0  0.12 0 0  0.14 0 0  0.16 0 0  0.18 0 0  0.2 0 0  0.22 0 0  0.24 0 0  0.26 0 0  0.28 0 0  0.3 0 0  0.32 0 0  0.34 0 0  0.36 0 0  0.38 0 0  0.4 0 0  0.42 0 0  0.44 0 0  0.46 0 0  0.48 0 0  0.5 0 0  0.52 0 0  0.54 0 0  0.5600000000000001 0 0  0.58 0 0  0.6 0 0  0.62 0 0  0.64 0 0  0.66 0 0  0.68 0 0  0.7 0 0  0.72 0 0  0.74 0 0  0.76 0 0  0.78 0 0  0.8 0 0  0.82 0 0  0.84 0 0  0.86 0 0  0.88 0 0  0.9 0 0  0.92 0 0  0.9399999999999999 0 0  0.96 0 0  0.98 0 0  1 0 0  0 0.01313563088723984 0  0.02 0.01313563088723984 0  0.04 0.01313563088723984 0  0.06 0.01313563088723984 0  0.08 0.01313563088723984 0  0.1 0.01313563088723984 0  0.12 0.01313563088723984 0  0.14 0.01313563088723984 0  0.16 0.01313563088723984 0  0.18 0.01313563088723984 0  0.2 0.01313563088723984 0  0.22 0.01313563088723984 0  0.24 0.01313563088723984 0  0.26 0.01313563088723984 0  0.28 0.01313563088723984 0  0.3 0.01313563088723984 0  0.32 0.01313563088723984 0  0.34 0.01313563088723984 0  0.36 0.01313563088723984 0  0.38 0.01313563088723984 0  0.4 0.01313563088723984 0  0.42 0.01313563088723984 0  0.44 0.01313563088723984 0  0.46 0.01313563088723984 0  0.48 0.01313563088723984 0  0.5 0.01313563088723984 0  0.52 0.01313563088723984 0  0.54 0.01313563088723984 0  0.5600000000000001 0.01313563088723984 0  0.58 0.01313563088723984 0  0.6 0.01313563088723984 0  0.62 0.01313563088723984 0  0.64 0.01313563088723984 0  0.66 0.01313563088723984 0  0.68 0.01313563088723984 0  0.7 0.01313563088723984 0  0.72 0.01313563088723984 0  0.74 0.01313563088723984 0  0.76 0.01313563088723984 0  0.78 0.01313563088723984 0  0.8 0.01313563088723984 0  0.82 0.01313563088723984 0  0.84 0.01313563088723984 0  0.86 0.01313563088723984 0  0.88 0.01313563088723984 0  0.9 0.01313563088723984 0  0.92 0.01313563088723984 0  0.9399999999999999 0.01313563088723984 0  0.96 0.01313563088723984 0  0.98 0.01313563088723984 0  1 0.01313563088723984 0  0 0.02664639863733726 0  0.02 0.02664639863733726 0  0.04 0.02664639863733726 0  0.06 0.02664639863733726 0  0.08 0.02664639863733726 0  0.1 0.02664639863733726 0  0.12 0.02664639863733726 0  0.14 0.02664639863733726 0  0.16 0.02664639863733726 0  0.18 0.02664639863733726 0  0.2 0.02664639863733726 0  0.22 0.02664639863733726 0  0.24 0.02664639863733726 0  0.26 0.02664639863733726 0  0.28 0.02664639863733726 0  0.3 0.02664639863733726 0  0.32 0.02664639863733726 0  0.34 0.02664639863733726 0  0.36 0.02664639863733726 0  0.38 0.02664639863733726 0  0.4 0.02664639863733726 0  0.42 0.02664639863733726 0  0.44 0.02664639863733726 0  0.46 0.02664639863733726 0  0.48 0.02664639863733726 0  0.5 0.02664639863733726 0  0.52 0.02664639863733726 0  0.54 0.02664639863733726 0  0.5600000000000001 0.02664639863733726 0  0.58 0.02664639863733726 0  0.6 0.02664639863733726 0  0.62 0.02664639863733726 0  0.64 0.02664639863733726 0  0.66 0.02664639863733726 0  0.68 0.02664639863733726 0  0.7 0.02664639863733726 0  0.72 0.02664639863733726 0  0.74 0.02664639863733726 0  0.76 0.02664639863733726 0  0.78 0.02664639863733726 0  0.8 0.02664639863733726 0  0.82 0.02664639863733726 0  0.84 0.02664639863733726 0  0.86 0.02664639863733726 0  0.88 0.02664639863733726 0  0.9 0.02664639863733726 0  0.92 0.02664639863733726 0  0.9399999999999999 0.02664639863733726 0  0.96 0.02664639863733726 0  0.98 0.02664639863733726 0  1 0.02664639863733726 0  0 0.04101652939099896 0  0.02 0.04101652939099896 0  0.04 0.04101652939099896 0  0.06 0.04101652939099896 0  0.08 0.04101652939099896 0  0.1 0.04101652939099896 0  0.12 0.04101652939099896 0  0.14 0.04101652939099896 0  0.16 0.04101652939099896 0  0.18 0.04101652939099896 0  0.2 0.04101652939099896 0  0.22 0.04101652939099896 0  0.24 0.04101652939099896 0  0.26 0.04101652939099896 0  0.28 0.04101652939099896 0  0.3 0.04101652939099896 0  0.32 0.04101652939099896 0  0.34 0.04101652939099896 0  0.36 0.04101652939099896 0  0.38 0.04101652939099896 0  0.4 0.04101652939099896 0  0.42 0.04101652939099896 0  0.44 0.04101652939099896 0  0.46 0.04101652939099896 0  0.48 0.04101652939099896 0  0.5 0.04101652939099896 0  0.52 0.04101652939099896 0  0.54 0.04101652939099896 0  0.5600000000000001 0.04101652939099896 0  0.58 0.04101652939099896 0  0.6 0.04101652939099896 0  0.62 0.04101652939099896 0  0.64 0.04101652939099896 0  0.66 0.04101652939099896 0  0.68 0.04101652939099896 0  0.7 0.04101652939099896 0  0.72 0.04101652939099896 0  0.74 0.04101652939099896 0  0.76 0.04101652939099896 0  0.78 0.04101652939099896 0  0.8 0.04101652939099896 0  0.82 0.04101652939099896 0  0.84 0.04101652939099896 0  0.86 0.04101652939099896 0  0.88 0.04101652939099896 0  0.9 0.04101652939099896 0  0.92 0.04101652939099896 0  0.9399999999999999 0.04101652939099896 0  0.96 0.04101652939099896 0  0.98 0.04101652939099896 0  1 0.04101652939099896 0  0 0.05705811164099547 0  0.02 0.05705811164099547 0  0.04 0.05705811164099547 0  0.06 0.05705811164099547 0  0.08 0.05705811164099547 0  0.1 0.05705811164099547 0  0.12 0.05705811164099547 0  0.14 0.05705811164099547 0  0.16 0.05705811164099547 0  0.18 0.05705811164099547 0  0.2 0.05705811164099547 0  0.22 0.05705811164099547 0  0.24 0.05705811164099547 0  0.26 0.05705811164099547 0  0.28 0.05705811164099547 0  0.3 0.05705811164099547 0  0.32 0.05705811164099547 0  0.34 0.05705811164099547 0  0.36 0.05705811164099547 0  0.38 0.05705811164099547 0  0.4 0.05705811164099547 0  0.42 0.05705811164099547 0  0.44 0.05705811164099547 0  0.46 0.05705811164099547 0  0.48 0.05705811164099547 0  0.5 0.05705811164099547 0  0.52 0.05705811164099547 0  0.54 0.05705811164099547 0  0.5600000000000001 0.05705811164099547 0  0.58 0.05705811164099547 0  0.6 0.05705811164099547 0  0.62 0.05705811164099547 0  0.64 0.05705811164099547 0  0.66 0.05705811164099547 0  0.68 0.05705811164099547 0  0.7 0.05705811164099547 0  0.72 0.05705811164099547 0  0.74 0.05705811164099547 0  0.76 0.05705811164099547 0  0.78 0.05705811164099547 0  0.8 0.05705811164099547 0  0.82 0.05705811164099547 0  0.84 0.05705811164099547 0  0.86 0.05705811164099547 0  0.88 0.05705811164099547 0  0.9 0.05705811164099547 0  0.92 0.05705811164099547 0  0.9399999999999999 0.05705811164099547 0  0.96 0.05705811164099547 0  0.98 0.05705811164099547 0  1 0.05705811164099547 0  0 0.07667714377545 0  0.02 0.07667714377545 0  0.04 0.07667714377545 0  0.06 0.07667714377545 0  0.08 0.07667714377545 0  0.1 0.07667714377545 0  0.12 0.07667714377545 0  0.14 0.07667714377545 0  0.16 0.07667714377545 0  0.18 0.07667714377545 0  0.2 0.07667714377545 0  0.22 0.07667714377545 0  0.24 0.07667714377545 0  0.26 0.07667714377545 0  0.28 0.07667714377545 0  0.3 0.07667714377545 0  0.32 0.07667714377545 0  0.34 0.07667714377545 0  0.36 0.07667714377545 0  0.38 0.07667714377545 0  0.4 0.07667714377545 0  0.42 0.07667714377545 0  0.44 0.07667714377545 0  0.46 0.07667714377545 0  0.48 0.07667714377545 0  0.5 0.07667714377545 0  0.52 0.07667714377545 0  0.54 0.07667714377545 0  0.5600000000000001 0.07667714377545 0  0.58 0.07667714377545 0  0.6 0.07667714377545 0  0.62 0.07667714377545 0  0.64 0.07667714377545 0  0.66 0.07667714377545 0  0.68 0.07667714377545 0  0.7 0.07667714377545 0  0.72 0.07667714377545 0  0.74 0.07667714377545 0  0.76 0.07667714377545 0  0.78 0.07667714377545 0  0.8 0.07667714377545 0  0.82 0.07667714377545 0  0.84 0.07667714377545 0  0.86 0.07667714377545 0  0.88 0.07667714377545 0  0.9 0.07667714377545 0  0.92 0.07667714377545 0  0.9399999999999999 0.07667714377545 0  0.96 0.07667714377545 0  0.98 0.07667714377545 0  1 0.07667714377545 0  0 0.1098730133816912 0  0.02 0.1098730133816912 0  0.04 0.1098730133816912 0  0.06 0.1098730133816912 0  0.08 0.1098730133816912 0  0.1 0.1098730133816912 0  0.12 0.1098730133816912 0  0.14 0.1098730133816912 0  0.16 0.1098730133816912 0  0.18 0.1098730133816912 0  0.2 0.1098730133816912 0  0.22 0.1098730133816912 0  0.24 0.1098730133816912 0  0.26 0.1098730133816912 0  0.28 0.1098730133816912 0  0.3 0.1098730133816912 0  0.32 0.1098730133816912 0  0.34 0.1098730133816912 0  0.36 0.1098730133816912 0  0.38 0.1098730133816912 0  0.4 0.1098730133816912 0  0.42 0.1098730133816912 0  0.44 0.1098730133816912 0  0.46 0.1098730133816912 0  0.48 0.1098730133816912 0  0.5 0.1098730133816912 0  0.52 0.1098730133816912 0  0.54 0.1098730133816912 0  0.5600000000000001 0.1098730133816912 0  0.58 0.1098730133816912 0  0.6 0.1098730133816912 0  0.62 0.1098730133816912 0  0.64 0.1098730133816912 0  0.66 0.1098730133816912 0  0.68 0.1098730133816912 0  0.7 0.1098730133816912 0  0.72 0.1098730133816912 0  0.74 0.1098730133816912 0  0.76 0.1098730133816912 0  0.78 0.1098730133816912 0  0.8 0.1098730133816912 0  0.82 0.1098730133816912 0  0.84 0.1098730133816912 0  0.86 0.1098730133816912 0  0.88 0.1098730133816912 0  0.9 0.1098730133816912 0  0.92 0.1098730133816912 0  0.9399999999999999 0.1098730133816912 0  0.96 0.1098730133816912 0  0.98 0.1098730133816912 0  1 0.1098730133816912 0  0 0.1603283563168221 0  0.02 0.1603283563168221 0  0.04 0.1603283563168221 0  0.06 0.1603283563168221 0  0.08 0.1603283563168221 0  0.1 0.1603283563168221 0  0.12 0.1603283563168221 0  0.14 0.1603283563168221 0  0.16 0.1603283563168221 0  0.18 0.1603283563168221 0  0.2 0.1603283563168221 0  0.22 0.1603283563168221 0  0.24 0.1603283563168221 0  0.26 0.1603283563168221 0  0.28 0.1603283563168221 0  0.3 0.1603283563168221 0  0.32 0.1603283563168221 0  0.34 0.1603283563168221 0  0.36 0.1603283563168221 0  0.38 0.1603283563168221 0  0.4 0.1603283563168221 0  0.42 0.1603283563168221 0  0.44 0.1603283563168221 0  0.46 0.1603283563168221 0  0.48 0.1603283563168221 0  0.5 0.1603283563168221 0  0.52 0.1603283563168221 0  0.54 0.1603283563168221 0  0.5600000000000001 0.1603283563168221 0  0.58 0.1603283563168221 0 
[...]
<PointData  Vectors="u_paraw"> 
<DataArray  type="Float64"  Name="u_paraw"  NumberOfComponents="3" format="ascii">1.2369853731155641e-05 -2.8426211294877660e-05 0.0000000000000000e+00  1.2369853726302348e-05 -2.8426211308571134e-05 0.0000000000000000e+00  1.2369853723991252e-05 -2.8426211298000163e-05 0.0000000000000000e+00  1.2369853732129602e-05 -2.8426211298173628e-05 0.0000000000000000e+00  1.2369853731304213e-05 -2.8426211298108576e-05 0.0000000000000000e+00  1.2369853723182369e-05 -2.8426211309069877e-05 0.0000000000000000e+00  1.2369853728415344e-05 -2.8426211305210080e-05 0.0000000000000000e+00  1.2369853722951260e-05 -2.8426211311997223e-05 0.0000000000000000e+00  1.2369853724337916e-05 -2.8426211312149011e-05 0.0000000000000000e+00  1.2369853719402082e-05 -2.8426211309622783e-05 0.0000000000000000e+00  1.2369853719336050e-05 -2.8426211297599018e-05 0.0000000000000000e+00  1.2369853731040086e-05 -2.8426211306413582e-05 0.0000000000000000e+00  1.2369853734490217e-05 -2.8426211305817233e-05 0.0000000000000000e+00  1.2369853724189346e-05 -2.8426211295766679e-05 0.0000000000000000e+00  1.2369853728547407e-05 -2.8426211304559643e-05 0.0000000000000000e+00  1.2369853724800135e-05 -2.8426211305567867e-05 0.0000000000000000e+00  1.2369853722191902e-05 -2.8426211295213736e-05 0.0000000000000000e+00  1.2369853733714350e-05 -2.8426211316464183e-05 0.0000000000000000e+00  1.2369853739871761e-05 -2.8426211303236832e-05 0.0000000000000000e+00  1.2369853725311876e-05 -2.8426211301198532e-05 0.0000000000000000e+00  1.2369853732360710e-05 -2.8426211303670598e-05 0.0000000000000000e+00  1.2369853732641342e-05 -2.8426211306576175e-05 0.0000000000000000e+00  1.2369853728101696e-05 -2.8426211306879751e-05 0.0000000000000000e+00  1.2369853719798270e-05 -2.8426211309633709e-05 0.0000000000000000e+00  1.2369853731122624e-05 -2.8426211305004082e-05 0.0000000000000000e+00  1.2369853726005205e-05 -2.8426211302358628e-05 0.0000000000000000e+00  1.2369853728118203e-05 -2.8426211313851171e-05 0.0000000000000000e+00  1.2369853732294679e-05 -2.8426211301361162e-05 0.0000000000000000e+00  1.2369853729207718e-05 -2.8426211295625892e-05 0.0000000000000000e+00  1.2369853722984276e-05 -2.8426211300775693e-05 0.0000000000000000e+00  1.2369853735001959e-05 -2.8426211303605461e-05 0.0000000000000000e+00  1.2369853730247710e-05 -2.8426211316301468e-05 0.0000000000000000e+00  1.2369853721168418e-05 -2.8426211314512535e-05 0.0000000000000000e+00  1.2369853730544851e-05 -2.8426211306814699e-05 0.0000000000000000e+00  1.2369853719781763e-05 -2.8426211305741498e-05 0.0000000000000000e+00  1.2369853730726436e-05 -2.8426211305665445e-05 0.0000000000000000e+00  1.2369853724536009e-05 -2.8426211301133480e-05 0.0000000000000000e+00  1.2369853726417900e-05 -2.8426211296460568e-05 0.0000000000000000e+00  1.2369853726781072e-05 -2.8426211301035902e-05 0.0000000000000000e+00  1.2369853723347448e-05 -2.8426211306348492e-05 0.0000000000000000e+00  1.2369853719336050e-05 -2.8426211304429614e-05 0.0000000000000000e+00  1.2369853733120068e-05 -2.8426211297479718e-05 0.0000000000000000e+00  1.2369853731733413e-05 -2.8426211305708813e-05 0.0000000000000000e+00  1.2369853735266084e-05 -2.8426211295257104e-05 0.0000000000000000e+00  1.2369853727259798e-05 -2.8426211299864963e-05 0.0000000000000000e+00  1.2369853726649009e-05 -2.8426211310370882e-05 0.0000000000000000e+00  1.2369853730297234e-05 -2.8426211300905957e-05 0.0000000000000000e+00  1.2369853729356289e-05 -2.8426211305806391e-05 0.0000000000000000e+00  1.2369853733664826e-05 -2.8426211307963953e-05 0.0000000000000000e+00  1.2369853722191902e-05 -2.8426211288903679e-05 0.0000000000000000e+00  1.2369853731155640e-05 -1.1049072332667176e-14 0.0000000000000000e+00  -2.3993192511375190e-05 -2.4241599164737286e-04 0.0000000000000000e+00  -2.3993192508775179e-05 -2.4241599164817517e-04 0.0000000000000000e+00  -2.3993192509834444e-05 -2.4241599165138446e-04 0.0000000000000000e+00  -2.3993192502644293e-05 -2.4241599166693187e-04 0.0000000000000000e+00  -2.3993192501007250e-05 -2.4241599165249030e-04 0.0000000000000000e+00  -2.3993192514488789e-05 -2.4241599165324940e-04 0.0000000000000000e+00  -2.3993192509609757e-05 -2.4241599166632453e-04 0.0000000000000000e+00  -2.3993192507170238e-05 -2.4241599166602130e-04 0.0000000000000000e+00  -2.3993192506881349e-05 -2.4241599164745976e-04 0.0000000000000000e+00  -2.3993192511760380e-05 -2.4241599166691000e-04 0.0000000000000000e+00  -2.3993192497026984e-05 -2.4241599164661408e-04 0.0000000000000000e+00  -2.3993192511535690e-05 -2.4241599165574307e-04 0.0000000000000000e+00  -2.3993192503510964e-05 -2.4241599166365739e-04 0.0000000000000000e+00  -2.3993192508678888e-05 -2.4241599167413078e-04 0.0000000000000000e+00  -2.3993192512017174e-05 -2.4241599165364001e-04 0.0000000000000000e+00  -2.3993192516703614e-05 -2.4241599167690634e-04 0.0000000000000000e+00  -2.3993192496096115e-05 -2.4241599165242505e-04 0.0000000000000000e+00  -2.3993192504923313e-05 -2.4241599164828405e-04 0.0000000000000000e+00  -2.3993192500525766e-05 -2.4241599166235635e-04 0.0000000000000000e+00  -2.3993192501264040e-05 -2.4241599166339718e-04 0.0000000000000000e+00  -2.3993192505083809e-05 -2.4241599166053554e-04 0.0000000000000000e+00  -2.3993192510219634e-05 -2.4241599166511022e-04 0.0000000000000000e+00  -2.3993192506239369e-05 -2.4241599166354897e-04 0.0000000000000000e+00  -2.3993192510187535e-05 -2.4241599166439530e-04 0.0000000000000000e+00  -2.3993192495999818e-05 -2.4241599165919048e-04 0.0000000000000000e+00  -2.3993192510733217e-05 -2.4241599165847490e-04 0.0000000000000000e+00  -2.3993192512402360e-05 -2.4241599165066865e-04 0.0000000000000000e+00  -2.3993192501328238e-05 -2.4241599165849659e-04 0.0000000000000000e+00  -2.3993192500718357e-05 -2.4241599164839318e-04 0.0000000000000000e+00  -2.3993192509513459e-05 -2.4241599166469822e-04 0.0000000000000000e+00  -2.3993192504570226e-05 -2.4241599166458980e-04 0.0000000000000000e+00  -2.3993192503992448e-05 -2.4241599165368273e-04 0.0000000000000000e+00  -2.3993192513911007e-05 -2.4241599167063965e-04 0.0000000000000000e+00  -2.3993192494523270e-05 -2.4241599165819301e-04 0.0000000000000000e+00  -2.3993192508646789e-05 -2.4241599165951709e-04 0.0000000000000000e+00  -2.3993192495229445e-05 -2.4241599164576805e-04 0.0000000000000000e+00  -2.3993192512659150e-05 -2.4241599165500546e-04 0.0000000000000000e+00  -2.3993192511022106e-05 -2.4241599165899532e-04 0.0000000000000000e+00  -2.3993192507106039e-05 -2.4241599166647631e-04 0.0000000000000000e+00  -2.3993192506720853e-05 -2.4241599165361768e-04 0.0000000000000000e+00  -2.3993192510251733e-05 -2.4241599165843289e-04 0.0000000000000000e+00  -2.3993192494940556e-05 -2.4241599164969286e-04 0.0000000000000000e+00  -2.3993192508550491e-05 -2.4241599165975426e-04 0.0000000000000000e+00  -2.3993192504281337e-05 -2.4241599165784606e-04 0.0000000000000000e+00  -2.3993192507041844e-05 -2.4241599166691000e-04 0.0000000000000000e+00  -2.3993192507940611e-05 -2.4241599165179622e-04 0.0000000000000000e+00  -2.3993192504891218e-05 -2.4241599166409242e-04 0.0000000000000000e+00  -2.3993192501585028e-05 -2.4241599166122878e-04 0.0000000000000000e+00  -2.3993192500012182e-05 -2.4241599165496209e-04 0.0000000000000000e+00  -2.3993192505597392e-05 -2.4241599165502714e-04 0.0000000000000000e+00  -2.3993192511375194e-05 -1.0843868335020243e-04 0.0000000000000000e+00  2.1448038698527766e-05 -1.2136956165130844e-04 0.0000000000000000e+00  2.1448038693638715e-05 -1.2136956166193362e-04 0.0000000000000000e+00  2.1448038706796901e-05 -1.2136956164055318e-04 0.0000000000000000e+00  2.1448038692793695e-05 -1.2136956165946161e-04 0.0000000000000000e+00  2.1448038702330361e-05 -1.2136956165152525e-04 0.0000000000000000e+00  2.1448038692854051e-05 -1.2136956166058928e-04 0.0000000000000000e+00  2.1448038702330361e-05 -1.2136956164363219e-04 0.0000000000000000e+00  2.1448038701183546e-05 -1.2136956165581879e-04 0.0000000000000000e+00  2.1448038693035126e-05 -1.2136956165295649e-04 0.0000000000000000e+00  2.1448038698950276e-05 -1.2136956164215768e-04 0.0000000000000000e+00  2.1448038698467406e-05 -1.2136956165885455e-04 0.0000000000000000e+00  2.1448038688447870e-05 -1.2136956166926289e-04 0.0000000000000000e+00  2.1448038704020402e-05 -1.2136956165750998e-04 0.0000000000000000e+00  2.1448038701002471e-05 -1.2136956165039761e-04 0.0000000000000000e+00  2.1448038711444517e-05 -1.2136956165399748e-04 0.0000000000000000e+00  2.1448038687663206e-05 -1.2136956167307912e-04 0.0000000000000000e+00  2.1448038711987746e-05 -1.2136956165547168e-04 0.0000000000000000e+00  2.1448038701968207e-05 -1.2136956166423235e-04 0.0000000000000000e+00  2.1448038698588125e-05 -1.2136956165473442e-04 0.0000000000000000e+00  2.1448038704020402e-05 -1.2136956165755335e-04 0.0000000000000000e+00  2.1448038709995911e-05 -1.2136956164397945e-04 0.0000000000000000e+00  2.1448038694966605e-05 -1.2136956165894113e-04 0.0000000000000000e+00  2.1448038704925782e-05 -1.2136956165013741e-04 0.0000000000000000e+00  2.1448038697139516e-05 -1.2136956165087497e-04 0.0000000000000000e+00  2.1448038699734937e-05 -1.2136956165317317e-04 0.0000000000000000e+00  2.1448038701062830e-05 -1.2136956166384172e-04 0.0000000000000000e+00  2.1448038710116627e-05 -1.2136956164198420e-04 0.0000000000000000e+00  2.1448038700157450e-05 -1.2136956164471639e-04 0.0000000000000000e+00  2.1448038693216205e-05 -1.2136956166735521e-04 0.0000000000000000e+00  2.1448038690560421e-05 -1.2136956165651251e-04 0.0000000000000000e+00  2.1448038697924180e-05 -1.2136956165299970e-04 0.0000000000000000e+00  2.1448038708305867e-05 -1.2136956165174202e-04 0.0000000000000000e+00  2.1448038692069390e-05 -1.2136956166323457e-04 0.0000000000000000e+00  2.1448038702752871e-05 -1.2136956166371162e-04 0.0000000000000000e+00  2.1448038694544095e-05 -1.2136956164393645e-04 0.0000000000000000e+00  2.1448038689232531e-05 -1.2136956167728583e-04 0.0000000000000000e+00  2.1448038705710446e-05 -1.2136956165980849e-04 0.0000000000000000e+00  2.1448038699674581e-05 -1.2136956165685946e-04 0.0000000000000000e+00  2.1448038698044896e-05 -1.2136956165980849e-04 0.0000000000000000e+00  2.1448038710176986e-05 -1.2136956165035425e-04 0.0000000000000000e+00  2.1448038698708841e-05 -1.2136956164502065e-04 0.0000000000000000e+00  2.1448038695389116e-05 -1.2136956164944352e-04 0.0000000000000000e+00  2.1448038691164010e-05 -1.2136956166848211e-04 0.0000000000000000e+00  2.1448038706495107e-05 -1.2136956165386706e-04 0.0000000000000000e+00  2.1448038702933946e-05 -1.2136956164406587e-04 0.0000000000000000e+00  2.1448038695992701e-05 -1.2136956165421401e-04 0.0000000000000000e+00  2.1448038695328756e-05 -1.2136956164935746e-04 0.0000000000000000e+00  2.1448038689655045e-05 -1.2136956166908926e-04 0.0000000000000000e+00  2.1448038706434747e-05 -1.2136956166189016e-04 0.0000000000000000e+00  2.1448038711444517e-05 -1.2136956164519344e-04 0.0000000000000000e+00  2.1448038698527766e-05 -2.8055992632022560e-04 0.0000000000000000e+00  -6.6953676325098608e-05 -2.0919921148963849e-04 0.0000000000000000e+00  -6.6953676338291586e-05 -2.0919921152285845e-04 0.0000000000000000e+00  -6.6953676325098608e-05 -2.0919921150282242e-04 0.0000000000000000e+00  -6.6953676325206743e-05 -2.0919921150950105e-04 0.0000000000000000e+00  -6.6953676298496366e-05 -2.0919921148139853e-04 0.0000000000000000e+00  -6.6953676313095148e-05 -2.0919921149362846e-04 0.0000000000000000e+00  -6.6953676318502118e-05 -2.0919921147480642e-04 0.0000000000000000e+00  -6.6953676324017211e-05 -2.0919921150004694e-04 0.0000000000000000e+00  -6.6953676317528857e-05 -2.0919921150603174e-04 0.0000000000000000e+00  -6.6953676318826539e-05 -2.0919921149310775e-04 0.0000000000000000e+00  -6.6953676319691637e-05 -2.0919921149050596e-04 0.0000000000000000e+00  -6.6953676327910215e-05 -2.0919921150490417e-04 0.0000000000000000e+00  -6.6953676323043963e-05 -2.0919921149093935e-04 0.0000000000000000e+00  -6.6953676329532317e-05 -2.0919921151244992e-04 0.0000000000000000e+00  -6.6953676312987012e-05 -2.0919921148374084e-04 0.0000000000000000e+00  -6.6953676328450920e-05 -2.0919921149050566e-04 0.0000000000000000e+00  -6.6953676315474226e-05 -2.0919921148911789e-04 0.0000000000000000e+00  -6.6953676328126500e-05 -2.0919921150802697e-04 0.0000000000000000e+00  -6.6953676313527717e-05 -2.0919921148712295e-04 0.0000000000000000e+00  -6.6953676319691651e-05 -2.0919921149943949e-04 0.0000000000000000e+00  -6.6953676309742835e-05 -2.0919921149146036e-04 0.0000000000000000e+00  -6.6953676329748588e-05 -2.0919921149631699e-04 0.0000000000000000e+00  -6.6953676329964873e-05 -2.0919921150143442e-04 0.0000000000000000e+00  -6.6953676323043950e-05 -2.0919921149545022e-04 0.0000000000000000e+00  -6.6953676319691651e-05 -2.0919921149744456e-04 0.0000000000000000e+00  -6.6953676329640452e-05 -2.0919921150204158e-04 0.0000000000000000e+00  -6.6953676316663745e-05 -2.0919921149458226e-04 0.0000000000000000e+00  -6.6953676324017211e-05 -2.0919921149362817e-04 0.0000000000000000e+00  -6.6953676327910228e-05 -2.0919921149501711e-04 0.0000000000000000e+00  -6.6953676323043963e-05 -2.0919921151522547e-04 0.0000000000000000e+00  -6.6953676331370677e-05 -2.0919921149692414e-04 0.0000000000000000e+00  -6.6953676316447474e-05 -2.0919921149805171e-04 0.0000000000000000e+00  -6.6953676328559056e-05 -2.0919921150585797e-04 0.0000000000000000e+00  -6.6953676314825385e-05 -2.0919921150256199e-04 0.0000000000000000e+00  -6.6953676318393983e-05 -2.0919921149649163e-04 0.0000000000000000e+00  -6.6953676329640452e-05 -2.0919921149041893e-04 0.0000000000000000e+00  -6.6953676335479965e-05 -2.0919921151574589e-04 0.0000000000000000e+00  -6.6953676322827678e-05 -2.0919921151175603e-04 0.0000000000000000e+00  -6.6953676317096301e-05 -2.0919921149458226e-04 0.0000000000000000e+00  -6.6953676321097454e-05 -2.0919921150108748e-04 0.0000000000000000e+00  -6.6953676313743989e-05 -2.0919921150906837e-04 0.0000000000000000e+00  -6.6953676321638160e-05 -2.0919921149276080e-04 0.0000000000000000e+00  -6.6953676322178851e-05 -2.0919921147732177e-04 0.0000000000000000e+00  -6.6953676322070716e-05 -2.0919921150655186e-04 0.0000000000000000e+00  -6.6953676311148653e-05 -2.0919921149874560e-04 0.0000000000000000e+00  -6.6953676320448627e-05 -2.0919921150785290e-04 0.0000000000000000e+00  -6.6953676312121900e-05 -2.0919921149397628e-04 0.0000000000000000e+00  -6.6953676326612560e-05 -2.0919921151045498e-04 0.0000000000000000e+00  -6.6953676315366077e-05 -2.0919921148955157e-04 0.0000000000000000e+00  -6.6953676311256788e-05 -2.0919921149952623e-04 0.0000000000000000e+00  -6.6953676325098608e-05 -5.0848368951575622e-05 0.0000000000000000e+00  2.4656107991433325e-04 1.1764738028833403e-03 0.0000000000000000e+00  2.4656107992556265e-04 1.1764738028993864e-03 0.0000000000000000e+00  2.4656107992105324e-04 1.1764738028860295e-03 0.0000000000000000e+00  2.4656107992759629e-04 1.1764738029002538e-03 0.0000000000000000e+00  2.4656107993104471e-04 1.1764738029045906e-03 0.0000000000000000e+00  2.4656107990752489e-04 1.1764738028929686e-03 0.0000000000000000e+00  2.4656107990832064e-04 1.1764738028829059e-03 0.0000000000000000e+00  2.4656107990893961e-04 1.1764738029045913e-03 0.0000000000000000e+00  2.4656107990381123e-04 1.1764738029004279e-03 0.0000000000000000e+00  2.4656107991318378e-04 1.1764738028803038e-03 0.0000000000000000e+00  2.4656107991778166e-04 1.1764738029180354e-03 0.0000000000000000e+00  2.4656107989275865e-04 1.1764738028886318e-03 0.0000000000000000e+00  2.4656107990584487e-04 1.1764738028894979e-03 0.0000000000000000e+00  2.4656107989885968e-04 1.1764738028842937e-03 0.0000000000000000e+00  2.4656107991424483e-04 1.1764738028981745e-03 0.0000000000000000e+00  2.4656107991778166e-04 1.1764738028923602e-03 0.0000000000000000e+00  2.4656107991689744e-04 1.1764738028959163e-03 0.0000000000000000e+00  2.4656107990107020e-04 1.1764738028870723e-03 0.0000000000000000e+00  2.4656107991725111e-04 1.1764738028808243e-03 0.0000000000000000e+00  2.4656107991389116e-04 1.1764738028994725e-03 0.0000000000000000e+00  2.4656107991963847e-04 1.1764738028947051e-03 0.0000000000000000e+00  2.4656107990690592e-04 1.1764738028881101e-03 0.0000000000000000e+00  2.4656107990779014e-04 1.1764738028986052e-03 0.0000000000000000e+00  2.4656107990947011e-04 1.1764738028963531e-03 0.0000000000000000e+00  2.4656107990787856e-04 1.1764738028918397e-03 0.0000000000000000e+00  2.4656107991353744e-04 1.1764738028932275e-03 0.0000000000000000e+00  2.4656107991795849e-04 1.1764738029040695e-03 0.0000000000000000e+00  2.4656107994068256e-04 1.1764738029081461e-03 0.0000000000000000e+00  2.4656107992795001e-04 1.1764738029017340e-03 0.0000000000000000e+00  2.4656107992264480e-04 1.1764738029019879e-03 0.0000000000000000e+00  2.4656107991512905e-04 1.1764738028978245e-03 0.0000000000000000e+00  2.4656107991663219e-04 1.1764738028953092e-03 0.0000000000000000e+00  2.4656107991397958e-04 1.1764738029032022e-03 0.0000000000000000e+00  2.4656107991459850e-04 1.1764738028868958e-03 0.0000000000000000e+00  2.4656107992335213e-04 1.1764738028823051e-03 0.0000000000000000e+00  2.4656107992856893e-04 1.1764738028999062e-03 0.0000000000000000e+00  2.4656107990239651e-04 1.1764738028935745e-03 0.0000000000000000e+00  2.4656107991530589e-04 1.1764738028882836e-03 0.0000000000000000e+00  2.4656107992105319e-04 1.1764738028874162e-03 0.0000000000000000e+00  2.4656107992432477e-04 1.1764738029063247e-03 0.0000000000000000e+00  2.4656107991610164e-04 1.1764738028995656e-03 0.0000000000000000e+00  2.4656107993210576e-04 1.1764738029039828e-03 0.0000000000000000e+00  2.4656107991283011e-04 1.1764738028947020e-03 0.0000000000000000e+00  2.4656107990858589e-04 1.1764738028921000e-03 0.0000000000000000e+00  2.4656107991610164e-04 1.1764738028820386e-03 0.0000000000000000e+00  2.4656107993122154e-04 1.1764738029032022e-03 0.0000000000000000e+00  2.4656107990902803e-04 1.1764738029020809e-03 0.0000000000000000e+00  2.4656107991132697e-04 1.1764738028913193e-03 0.0000000000000000e+00  2.4656107993060262e-04 1.1764738028865488e-03 0.0000000000000000e+00  2.4656107991725111e-04 1.1764738029071920e-03 0.0000000000000000e+00  2.4656107991433325e-04 -4.4200549471530230e-05 0.0000000000000000e+00  -6.2396963585206972e-04 -2.3313513867525421e-03 0.0000000000000000e+00  -6.2396963584496277e-04 -2.3313513867162863e-03 0.0000000000000000e+00  -6.2396963585834063e-04 -2.3313513867469914e-03 0.0000000000000000e+00  -6.2396963585363747e-04 -2.3313513867126430e-03 0.0000000000000000e+00  -6.2396963587830285e-04 -2.3313513867430006e-03 0.0000000000000000e+00  -6.2396963587809382e-04 -2.3313513867447371e-03 0.0000000000000000e+00  -6.2396963586429789e-04 -2.3313513867442128e-03 0.0000000000000000e+00  -6.2396963584684408e-04 -2.3313513867147264e-03 0.0000000000000000e+00  -6.2396963585363747e-04 -2.3313513867610435e-03 0.0000000000000000e+00  -6.2396963583294352e-04 -2.3313513867296411e-03 0.0000000000000000e+00  -6.2396963584841173e-04 -2.3313513867549720e-03 0.0000000000000000e+00  -6.2396963584977045e-04 -2.3313513867717988e-03 0.0000000000000000e+00  -6.2396963583816927e-04 -2.3313513867395290e-03 0.0000000000000000e+00  -6.2396963584663494e-04 -2.3313513867403964e-03 0.0000000000000000e+00  -6.2396963585301026e-04 -2.3313513867369339e-03 0.0000000000000000e+00  -6.2396963585687739e-04 -2.3313513867454271e-03 0.0000000000000000e+00  -6.2396963585468253e-04 -2.3313513867213144e-03 0.0000000000000000e+00  -6.2396963586544758e-04 -2.3313513867443932e-03 0.0000000000000000e+00  -6.2396963585248778e-04 -2.3313513867239165e-03 0.0000000000000000e+00  -6.2396963585834052e-04 -2.3313513867303350e-03 0.0000000000000000e+00  -6.2396963586304369e-04 -2.3313513867423115e-03 0.0000000000000000e+00  -6.2396963585677288e-04 -2.3313513867367535e-03 0.0000000000000000e+00  -6.2396963585813149e-04 -2.3313513867318962e-03 0.0000000000000000e+00  -6.2396963586387982e-04 -2.3313513867240969e-03 0.0000000000000000e+00  -