<?xml version="1.0"?>
<VTKFile type="UnstructuredGrid"  version="0.1"  >
<UnstructuredGrid>
<Piece  NumberOfPoints="2601" NumberOfCells="5000">
<Points>
<DataArray  type="Float64"  NumberOfComponents="3"  format="ascii">0 0 0  0.02 0 0  0.04 0 0  0.06 0 0  0.08 0 0  0.1 0 0  0.12 0 0  0.14 0 0  0.16 0 0  0.18 0 0  0.2 0 0  0.22 0 0  0.24 0 0  0.26 0 0  0.28 0 0  0.3 0 0  0.32 0 0  0.34 0 0  0.36 0 0  0.38 0 0  0.4 0 0  0.42 0 0  0.44 0 0  0.46 0 0  0.48 0 0  0.5 0 0  0.52 0 0  0.54 0 0  0.5600000000000001 0 0  0.58 0 0  0.6 0 0  0.62 0 0  0.64 0 0  0.66 0 0  0.68 0 0  0.7 0 0  0.72 0 0  0.74 0 0  0.76 0 0  0.78 0 0  0.8 0 0  0.82 0 0  0.84 0 0  0.86 0 0  0.88 0 0  0.9 0 0  0.92 0 0  0.9399999999999999 0 0  0.96 0 0  0.98 0 0  1 0 0  0 0.01313563088723984 0  0.02 0.01313563088723984 0  0.04 0.01313563088723984 0  0.06 0.01313563088723984 0  0.08 0.01313563088723984 0  0.1 0.01313563088723984 0  0.12 0.01313563088723984 0  0.14 0.01313563088723984 0  0.16 0.01313563088723984 0  0.18 0.01313563088723984 0  0.2 0.01313563088723984 0  0.22 0.01313563088723984 0  0.24 0.01313563088723984 0  0.26 0.01313563088723984 0  0.28 0.01313563088723984 0  0.3 0.01313563088723984 0  0.32 0.01313563088723984 0  0.34 0.01313563088723984 0  0.36 0.01313563088723984 0  0.38 0.01313563088723984 0  0.4 0.01313563088723984 0  0.42 0.01313563088723984 0  0.44 0.01313563088723984 0  0.46 0.01313563088723984 0  0.48 0.01313563088723984 0  0.5 0.01313563088723984 0  0.52 0.01313563088723984 0  0.54 0.01313563088723984 0  0.5600000000000001 0.01313563088723984 0  0.58 0.01313563088723984 0  0.6 0.01313563088723984 0  0.62 0.01313563088723984 0  0.64 0.01313563088723984 0  0.66 0.01313563088723984 0  0.68 0.01313563088723984 0  0.7 0.01313563088723984 0  0.72 0.01313563088723984 0  0.74 0.01313563088723984 0  0.76 0.01313563088723984 0  0.78 0.01313563088723984 0  0.8 0.01313563088723984 0  0.82 0.01313563088723984 0  0.84 0.01313563088723984 0  0.86 0.01313563088723984 0  0.88 0.01313563088723984 0  0.9 0.01313563088723984 0  0.92 0.01313563088723984 0  0.9399999999999999 0.01313563088723984 0  0.96 0.01313563088723984 0  0.98 0.01313563088723984 0  1 0.01313563088723984 0  0 0.02664639863733726 0  0.02 0.02664639863733726 0  0.04 0.02664639863733726 0  0.06 0.02664639863733726 0  0.08 0.02664639863733726 0  0.1 0.02664639863733726 0  0.12 0.02664639863733726 0  0.14 0.02664639863733726 0  0.16 0.02664639863733726 0  0.18 0.02664639863733726 0  0.2 0.02664639863733726 0  0.22 0.02664639863733726 0  0.24 0.02664639863733726 0  0.26 0.02664639863733726 0  0.28 0.02664639863733726 0  0.3 0.02664639863733726 0  0.32 0.02664639863733726 0  0.34 0.02664639863733726 0  0.36 0.02664639863733726 0  0.38 0.02664639863733726 0  0.4 0.02664639863733726 0  0.42 0.02664639863733726 0  0.44 0.02664639863733726 0  0.46 0.02664639863733726 0  0.48 0.02664639863733726 0  0.5 0.02664639863733726 0  0.52 0.02664639863733726 0  0.54 0.02664639863733726 0  0.5600000000000001 0.02664639863733726 0  0.58 0.02664639863733726 0  0.6 0.02664639863733726 0  0.62 0.02664639863733726 0  0.64 0.02664639863733726 0  0.66 0.02664639863733726 0  0.68 0.02664639863733726 0  0.7 0.02664639863733726 0  0.72 0.02664639863733726 0  0.74 0.02664639863733726 0  0.76 0.02664639863733726 0  0.78 0.02664639863733726 0  0.8 0.02664639863733726 0  0.82 0.02664639863733726 0  0.84 0.02664639863733726 0  0.86 0.02664639863733726 0  0.88 0.02664639863733726 0  0.9 0.02664639863733726 0  0.92 0.02664639863733726 0  0.9399999999999999 0.02664639863733726 0  0.96 0.02664639863733726 0  0.98 0.02664639863733726 0  1 0.02664639863733726 0  0 0.04101652939099896 0  0.02 0.04101652939099896 0  0.04 0.04101652939099896 0  0.06 0.04101652939099896 0  0.08 0.04101652939099896 0  0.1 0.04101652939099896 0  0.12 0.04101652939099896 0  0.14 0.04101652939099896 0  0.16 0.04101652939099896 0  0.18 0.04101652939099896 0  0.2 0.04101652939099896 0  0.22 0.04101652939099896 0  0.24 0.04101652939099896 0  0.26 0.04101652939099896 0  0.28 0.04101652939099896 0  0.3 0.04101652939099896 0  0.32 0.04101652939099896 0  0.34 0.04101652939099896 0  0.36 0.04101652939099896 0  0.38 0.04101652939099896 0  0.4 0.04101652939099896 0  0.42 0.04101652939099896 0  0.44 0.04101652939099896 0  0.46 0.04101652939099896 0  0.48 0.04101652939099896 0  0.5 0.04101652939099896 0  0.52 0.04101652939099896 0  0.54 0.04101652939099896 0  0.5600000000000001 0.04101652939099896 0  0.58 0.04101652939099896 0  0.6 0.04101652939099896 0  0.62 0.04101652939099896 0  0.64 0.04101652939099896 0  0.66 0.04101652939099896 0  0.68 0.04101652939099896 0  0.7 0.04101652939099896 0  0.72 0.04101652939099896 0  0.74 0.04101652939099896 0  0.76 0.04101652939099896 0  0.78 0.04101652939099896 0  0.8 0.04101652939099896 0  0.82 0.04101652939099896 0  0.84 0.04101652939099896 0  0.86 0.04101652939099896 0  0.88 0.04101652939099896 0  0.9 0.04101652939099896 0  0.92 0.04101652939099896 0  0.9399999999999999 0.04101652939099896 0  0.96 0.04101652939099896 0  0.98 0.04101652939099896 0  1 0.04101652939099896 0  0 0.05705811164099547 0  0.02 0.05705811164099547 0  0.04 0.05705811164099547 0  0.06 0.05705811164099547 0  0.08 0.05705811164099547 0  0.1 0.05705811164099547 0  0.12 0.05705811164099547 0  0.14 0.05705811164099547 0  0.16 0.05705811164099547 0  0.18 0.05705811164099547 0  0.2 0.05705811164099547 0  0.22 0.05705811164099547 0  0.24 0.05705811164099547 0  0.26 0.05705811164099547 0  0.28 0.05705811164099547 0  0.3 0.05705811164099547 0  0.32 0.05705811164099547 0  0.34 0.05705811164099547 0  0.36 0.05705811164099547 0  0.38 0.05705811164099547 0  0.4 0.05705811164099547 0  0.42 0.05705811164099547 0  0.44 0.05705811164099547 0  0.46 0.05705811164099547 0  0.48 0.05705811164099547 0  0.5 0.05705811164099547 0  0.52 0.05705811164099547 0  0.54 0.05705811164099547 0  0.5600000000000001 0.05705811164099547 0  0.58 0.05705811164099547 0  0.6 0.05705811164099547 0  0.62 0.05705811164099547 0  0.64 0.05705811164099547 0  0.66 0.05705811164099547 0  0.68 0.05705811164099547 0  0.7 0.05705811164099547 0  0.72 0.05705811164099547 0  0.74 0.05705811164099547 0  0.76 0.05705811164099547 0  0.78 0.05705811164099547 0  0.8 0.05705811164099547 0  0.82 0.05705811164099547 0  0.84 0.05705811164099547 0  0.86 0.05705811164099547 0  0.88 0.05705811164099547 0  0.9 0.05705811164099547 0  0.92 0.05705811164099547 0  0.9399999999999999 0.05705811164099547 0  0.96 0.05705811164099547 0  0.98 0.05705811164099547 0  1 0.05705811164099547 0  0 0.07667714377545 0  0.02 0.07667714377545 0  0.04 0.07667714377545 0  0.06 0.07667714377545 0  0.08 0.07667714377545 0  0.1 0.07667714377545 0  0.12 0.07667714377545 0  0.14 0.07667714377545 0  0.16 0.07667714377545 0  0.18 0.07667714377545 0  0.2 0.07667714377545 0  0.22 0.07667714377545 0  0.24 0.07667714377545 0  0.26 0.07667714377545 0  0.28 0.07667714377545 0  0.3 0.07667714377545 0  0.32 0.07667714377545 0  0.34 0.07667714377545 0  0.36 0.07667714377545 0  0.38 0.07667714377545 0  0.4 0.07667714377545 0  0.42 0.07667714377545 0  0.44 0.07667714377545 0  0.46 0.07667714377545 0  0.48 0.07667714377545 0  0.5 0.07667714377545 0  0.52 0.07667714377545 0  0.54 0.07667714377545 0  0.5600000000000001 0.07667714377545 0  0.58 0.07667714377545 0  0.6 0.07667714377545 0  0.62 0.07667714377545 0  0.64 0.07667714377545 0  0.66 0.07667714377545 0  0.68 0.07667714377545 0  0.7 0.07667714377545 0  0.72 0.07667714377545 0  0.74 0.07667714377545 0  0.76 0.07667714377545 0  0.78 0.07667714377545 0  0.8 0.07667714377545 0  0.82 0.07667714377545 0  0.84 0.07667714377545 0  0.86 0.07667714377545 0  0.88 0.07667714377545 0  0.9 0.07667714377545 0  0.92 0.07667714377545 0  0.9399999999999999 0.07667714377545 0  0.96 0.07667714377545 0  0.98 0.07667714377545 0  1 0.07667714377545 0  0 0.1098730133816912 0  0.02 0.1098730133816912 0  0.04 0.1098730133816912 0  0.06 0.1098730133816912 0  0.08 0.1098730133816912 0  0.1 0.1098730133816912 0  0.12 0.1098730133816912 0  0.14 0.1098730133816912 0  0.16 0.1098730133816912 0  0.18 0.1098730133816912 0  0.2 0.1098730133816912 0  0.22 0.1098730133816912 0  0.24 0.1098730133816912 0  0.26 0.1098730133816912 0  0.28 0.1098730133816912 0  0.3 0.1098730133816912 0  0.32 0.1098730133816912 0  0.34 0.1098730133816912 0  0.36 0.1098730133816912 0  0.38 0.1098730133816912 0  0.4 0.1098730133816912 0  0.42 0.1098730133816912 0  0.44 0.1098730133816912 0  0.46 0.1098730133816912 0  0.48 0.1098730133816912 0  0.5 0.1098730133816912 0  0.52 0.1098730133816912 0  0.54 0.1098730133816912 0  0.5600000000000001 0.1098730133816912 0  0.58 0.1098730133816912 0  0.6 0.1098730133816912 0  0.62 0.1098730133816912 0  0.64 0.1098730133816912 0  0.66 0.1098730133816912 0  0.68 0.1098730133816912 0  0.7 0.1098730133816912 0  0.72 0.1098730133816912 0  0.74 0.1098730133816912 0  0.76 0.1098730133816912 0  0.78 0.1098730133816912 0  0.8 0.1098730133816912 0  0.82 0.1098730133816912 0  0.84 0.1098730133816912 0  0.86 0.1098730133816912 0  0.88 0.1098730133816912 0  0.9 0.1098730133816912 0  0.92 0.1098730133816912 0  0.9399999999999999 0.1098730133816912 0  0.96 0.1098730133816912 0  0.98 0.1098730133816912 0  1 0.1098730133816912 0  0 0.1603283563168221 0  0.02 0.1603283563168221 0  0.04 0.1603283563168221 0  0.06 0.1603283563168221 0  0.08 0.1603283563168221 0  0.1 0.1603283563168221 0  0.12 0.1603283563168221 0  0.14 0.1603283563168221 0  0.16 0.1603283563168221 0  0.18 0.1603283563168221 0  0.2 0.1603283563168221 0  0.22 0.1603283563168221 0  0.24 0.1603283563168221 0  0.26 0.1603283563168221 0  0.28 0.1603283563168221 0  0.3 0.1603283563168221 0  0.32 0.1603283563168221 0  0.34 0.1603283563168221 0  0.36 0.1603283563168221 0  0.38 0.1603283563168221 0  0.4 0.1603283563168221 0  0.42 0.1603283563168221 0  0.44 0.1603283563168221 0  0.46 0.1603283563168221 0  0.48 0.1603283563168221 0  0.5 0.1603283563168221 0  0.52 0.1603283563168221 0  0.54 0.1603283563168221 0  0.5600000000000001 0.1603283563168221 0  0.58 0.1603283563168221 0 
[...]
<PointData  Vectors="u_paraw"> 
<DataArray  type="Float64"  Name="u_paraw"  NumberOfComponents="3" format="ascii">-3.9036861528276999e-05 -3.2958891192960390e-04 0.0000000000000000e+00  -3.9036861543101011e-05 -3.2958891194710292e-04 0.0000000000000000e+00  -3.9036861519164687e-05 -3.2958891190595745e-04 0.0000000000000000e+00  -3.9036861531826182e-05 -3.2958891192009539e-04 0.0000000000000000e+00  -3.9036861529696674e-05 -3.2958891192513693e-04 0.0000000000000000e+00  -3.9036861524117031e-05 -3.2958891192170017e-04 0.0000000000000000e+00  -3.9036861546947320e-05 -3.2958891193124072e-04 0.0000000000000000e+00  -3.9036861523869412e-05 -3.2958891190340968e-04 0.0000000000000000e+00  -3.9036861543365129e-05 -3.2958891192057260e-04 0.0000000000000000e+00  -3.9036861538082632e-05 -3.2958891193343080e-04 0.0000000000000000e+00  -3.9036861517711998e-05 -3.2958891191716821e-04 0.0000000000000000e+00  -3.9036861538165167e-05 -3.2958891191756936e-04 0.0000000000000000e+00  -3.9036861536068679e-05 -3.2958891193399459e-04 0.0000000000000000e+00  -3.9036861517844061e-05 -3.2958891190688953e-04 0.0000000000000000e+00  -3.9036861526510658e-05 -3.2958891191397035e-04 0.0000000000000000e+00  -3.9036861526015428e-05 -3.2958891191787250e-04 0.0000000000000000e+00  -3.9036861527930332e-05 -3.2958891191144318e-04 0.0000000000000000e+00  -3.9036861520964035e-05 -3.2958891193735659e-04 0.0000000000000000e+00  -3.9036861520072618e-05 -3.2958891191255991e-04 0.0000000000000000e+00  -3.9036861532536010e-05 -3.2958891194074917e-04 0.0000000000000000e+00  -3.9036861519478333e-05 -3.2958891191480519e-04 0.0000000000000000e+00  -3.9036861538000090e-05 -3.2958891194486914e-04 0.0000000000000000e+00  -3.9036861529927772e-05 -3.2958891192629675e-04 0.0000000000000000e+00  -3.9036861514790120e-05 -3.2958891192303428e-04 0.0000000000000000e+00  -3.9036861531363953e-05 -3.2958891192043122e-04 0.0000000000000000e+00  -3.9036861519560874e-05 -3.2958891191685335e-04 0.0000000000000000e+00  -3.9036861519478333e-05 -3.2958891191128055e-04 0.0000000000000000e+00  -3.9036861533906157e-05 -3.2958891192661117e-04 0.0000000000000000e+00  -3.9036861532585531e-05 -3.2958891192819590e-04 0.0000000000000000e+00  -3.9036861536993117e-05 -3.2958891193076367e-04 0.0000000000000000e+00  -3.9036861523687822e-05 -3.2958891192549444e-04 0.0000000000000000e+00  -3.9036861528557625e-05 -3.2958891193932886e-04 0.0000000000000000e+00  -3.9036861527088429e-05 -3.2958891192715327e-04 0.0000000000000000e+00  -3.9036861551453955e-05 -3.2958891194097685e-04 0.0000000000000000e+00  -3.9036861530356980e-05 -3.2958891191796103e-04 0.0000000000000000e+00  -3.9036861536431853e-05 -3.2958891193079619e-04 0.0000000000000000e+00  -3.9036861509656193e-05 -3.2958891190995783e-04 0.0000000000000000e+00  -3.9036861529812223e-05 -3.2958891192137448e-04 0.0000000000000000e+00  -3.9036861541268635e-05 -3.2958891191476084e-04 0.0000000000000000e+00  -3.9036861527253512e-05 -3.2958891193310554e-04 0.0000000000000000e+00  -3.9036861532717593e-05 -3.2958891192306762e-04 0.0000000000000000e+00  -3.9036861532370933e-05 -3.2958891192390067e-04 0.0000000000000000e+00  -3.9036861529019847e-05 -3.2958891192383561e-04 0.0000000000000000e+00  -3.9036861527253512e-05 -3.2958891191994333e-04 0.0000000000000000e+00  -3.9036861528871278e-05 -3.2958891191675577e-04 0.0000000000000000e+00  -3.9036861515995184e-05 -3.2958891192070227e-04 0.0000000000000000e+00  -3.9036861526642720e-05 -3.2958891191029572e-04 0.0000000000000000e+00  -3.9036861537455333e-05 -3.2958891192621002e-04 0.0000000000000000e+00  -3.9036861514707579e-05 -3.2958891192277310e-04 0.0000000000000000e+00  -3.9036861531644585e-05 -3.2958891190518734e-04 0.0000000000000000e+00  -3.9036861528276992e-05 3.3689121328727346e-15 0.0000000000000000e+00  -2.3389721909806442e-05 -6.6336607917774439e-05 0.0000000000000000e+00  -2.3389721916162025e-05 -6.6336607928182780e-05 0.0000000000000000e+00  -2.3389721880949527e-05 -6.6336607919357401e-05 0.0000000000000000e+00  -2.3389721908233600e-05 -6.6336607933712211e-05 0.0000000000000000e+00  -2.3389721900337271e-05 -6.6336607907821463e-05 0.0000000000000000e+00  -2.3389721901043446e-05 -6.6336607910987388e-05 0.0000000000000000e+00  -2.3389721907687921e-05 -6.6336607922349731e-05 0.0000000000000000e+00  -2.3389721888621169e-05 -6.6336607918078070e-05 0.0000000000000000e+00  -2.3389721916643516e-05 -6.6336607926599899e-05 0.0000000000000000e+00  -2.3389721900176775e-05 -6.6336607910488560e-05 0.0000000000000000e+00  -2.3389721900979247e-05 -6.6336607917969650e-05 0.0000000000000000e+00  -2.3389721904510128e-05 -6.6336607923434028e-05 0.0000000000000000e+00  -2.3389721895618732e-05 -6.6336607923303829e-05 0.0000000000000000e+00  -2.3389721892537236e-05 -6.6336607920701744e-05 0.0000000000000000e+00  -2.3389721904478029e-05 -6.6336607922566748e-05 0.0000000000000000e+00  -2.3389721890226113e-05 -6.6336607904742288e-05 0.0000000000000000e+00  -2.3389721898668128e-05 -6.6336607917188929e-05 0.0000000000000000e+00  -2.3389721898636029e-05 -6.6336607918316676e-05 0.0000000000000000e+00  -2.3389721885700169e-05 -6.6336607914413372e-05 0.0000000000000000e+00  -2.3389721897223676e-05 -6.6336607934753004e-05 0.0000000000000000e+00  -2.3389721892344641e-05 -6.6336607913481134e-05 0.0000000000000000e+00  -2.3389721909613854e-05 -6.6336607921785946e-05 0.0000000000000000e+00  -2.3389721898507632e-05 -6.6336607929657254e-05 0.0000000000000000e+00  -2.3389721892216248e-05 -6.6336607937225161e-05 0.0000000000000000e+00  -2.3389721884576708e-05 -6.6336607910401823e-05 0.0000000000000000e+00  -2.3389721893500204e-05 -6.6336607905718070e-05 0.0000000000000000e+00  -2.3389721901332335e-05 -6.6336607921959419e-05 0.0000000000000000e+00  -2.3389721905954580e-05 -6.6336607927120221e-05 0.0000000000000000e+00  -2.3389721898475533e-05 -6.6336607922154941e-05 0.0000000000000000e+00  -2.3389721897865652e-05 -6.6336607922002787e-05 0.0000000000000000e+00  -2.3389721889327343e-05 -6.6336607920875216e-05 0.0000000000000000e+00  -2.3389721904927414e-05 -6.6336607932476180e-05 0.0000000000000000e+00  -2.3389721898989116e-05 -6.6336607928052635e-05 0.0000000000000000e+00  -2.3389721905120008e-05 -6.6336607916885352e-05 0.0000000000000000e+00  -2.3389721886727335e-05 -6.6336607916994139e-05 0.0000000000000000e+00  -2.3389721892473037e-05 -6.6336607901836626e-05 0.0000000000000000e+00  -2.3389721883710038e-05 -6.6336607909968143e-05 0.0000000000000000e+00  -2.3389721913850909e-05 -6.6336607931869027e-05 0.0000000000000000e+00  -2.3389721894816259e-05 -6.6336607917904503e-05 0.0000000000000000e+00  -2.3389721899181708e-05 -6.6336607925168657e-05 0.0000000000000000e+00  -2.3389721892761927e-05 -6.6336607928399945e-05 0.0000000000000000e+00  -2.3389721902712588e-05 -6.6336607915887886e-05 0.0000000000000000e+00  -2.3389721896645894e-05 -6.6336607925081921e-05 0.0000000000000000e+00  -2.3389721890547105e-05 -6.6336607911789602e-05 0.0000000000000000e+00  -2.3389721885924860e-05 -6.6336607909729618e-05 0.0000000000000000e+00  -2.3389721894110081e-05 -6.6336607916429988e-05 0.0000000000000000e+00  -2.3389721892280446e-05 -6.6336607913286167e-05 0.0000000000000000e+00  -2.3389721893500204e-05 -6.6336607897976867e-05 0.0000000000000000e+00  -2.3389721891349577e-05 -6.6336607921352265e-05 0.0000000000000000e+00  -2.3389721897576763e-05 -6.6336607919032073e-05 0.0000000000000000e+00  -2.3389721909806449e-05 -5.0781431389738041e-04 0.0000000000000000e+00  7.3881272949155322e-05 6.4086614021386344e-04 0.0000000000000000e+00  7.3881272942938385e-05 6.4086614022036865e-04 0.0000000000000000e+00  7.3881272960985621e-05 6.4086614022314432e-04 0.0000000000000000e+00  7.3881272950724651e-05 6.4086614021143461e-04 0.0000000000000000e+00  7.3881272947525645e-05 6.4086614021702910e-04 0.0000000000000000e+00  7.3881272939920454e-05 6.4086614019317719e-04 0.0000000000000000e+00  7.3881272944990577e-05 6.4086614021676856e-04 0.0000000000000000e+00  7.3881272950121062e-05 6.4086614020514678e-04 0.0000000000000000e+00  7.3881272931892750e-05 6.4086614021807047e-04 0.0000000000000000e+00  7.3881272964003552e-05 6.4086614022639628e-04 0.0000000000000000e+00  7.3881272941248344e-05 6.4086614022010877e-04 0.0000000000000000e+00  7.3881272949819274e-05 6.4086614020978717e-04 0.0000000000000000e+00  7.3881272954044383e-05 6.4086614022466155e-04 0.0000000000000000e+00  7.3881272959476656e-05 6.4086614021130418e-04 0.0000000000000000e+00  7.3881272961408135e-05 6.4086614021516568e-04 0.0000000000000000e+00  7.3881272963460326e-05 6.4086614021685530e-04 0.0000000000000000e+00  7.3881272956760513e-05 6.4086614022782742e-04 0.0000000000000000e+00  7.3881272949577836e-05 6.4086614022128058e-04 0.0000000000000000e+00  7.3881272956639800e-05 6.4086614021529405e-04 0.0000000000000000e+00  7.3881272947586007e-05 6.4086614021811297e-04 0.0000000000000000e+00  7.3881272949638199e-05 6.4086614020029042e-04 0.0000000000000000e+00  7.3881272940886194e-05 6.4086614020427855e-04 0.0000000000000000e+00  7.3881272945956316e-05 6.4086614021598794e-04 0.0000000000000000e+00  7.3881272956096574e-05 6.4086614020835689e-04 0.0000000000000000e+00  7.3881272958510916e-05 6.4086614021347259e-04 0.0000000000000000e+00  7.3881272963762128e-05 6.4086614021564099e-04 0.0000000000000000e+00  7.3881272939739379e-05 6.4086614021529405e-04 0.0000000000000000e+00  7.3881272944387001e-05 6.4086614021460016e-04 0.0000000000000000e+00  7.3881272942153721e-05 6.4086614021694550e-04 0.0000000000000000e+00  7.3881272945594165e-05 6.4086614021494710e-04 0.0000000000000000e+00  7.3881272950543575e-05 6.4086614021433995e-04 0.0000000000000000e+00  7.3881272950241788e-05 6.4086614022340388e-04 0.0000000000000000e+00  7.3881272947706720e-05 6.4086614021937065e-04 0.0000000000000000e+00  7.3881272949819274e-05 6.4086614021911044e-04 0.0000000000000000e+00  7.3881272935212482e-05 6.4086614020757800e-04 0.0000000000000000e+00  7.3881272944326638e-05 6.4086614021702877e-04 0.0000000000000000e+00  7.3881272947465282e-05 6.4086614022197273e-04 0.0000000000000000e+00  7.3881272942214084e-05 6.4086614019924785e-04 0.0000000000000000e+00  7.3881272965150367e-05 6.4086614023008256e-04 0.0000000000000000e+00  7.3881272946499542e-05 6.4086614021277870e-04 0.0000000000000000e+00  7.3881272945654528e-05 6.4086614021646845e-04 0.0000000000000000e+00  7.3881272955674061e-05 6.4086614023541684e-04 0.0000000000000000e+00  7.3881272955010123e-05 6.4086614022730701e-04 0.0000000000000000e+00  7.3881272961589210e-05 6.4086614024252920e-04 0.0000000000000000e+00  7.3881272949215685e-05 6.4086614020740105e-04 0.0000000000000000e+00  7.3881272943783412e-05 6.4086614020653369e-04 0.0000000000000000e+00  7.3881272949879637e-05 6.4086614021273880e-04 0.0000000000000000e+00  7.3881272944326638e-05 6.4086614021533741e-04 0.0000000000000000e+00  7.3881272948431021e-05 6.4086614021850328e-04 0.0000000000000000e+00  7.3881272956579437e-05 6.4086614022401103e-04 0.0000000000000000e+00  7.3881272949155322e-05 4.6045316864082742e-04 0.0000000000000000e+00  -9.6454110513715158e-05 -3.9604161063159712e-04 0.0000000000000000e+00  -9.6454110523015119e-05 -3.9604161065527610e-04 0.0000000000000000e+00  -9.6454110510254697e-05 -3.9604161064825052e-04 0.0000000000000000e+00  -9.6454110511660514e-05 -3.9604161063350527e-04 0.0000000000000000e+00  -9.6454110509605869e-05 -3.9604161066360272e-04 0.0000000000000000e+00  -9.6454110498900078e-05 -3.9604161063732193e-04 0.0000000000000000e+00  -9.6454110499548918e-05 -3.9604161063081617e-04 0.0000000000000000e+00  -9.6454110517391878e-05 -3.9604161066022028e-04 0.0000000000000000e+00  -9.6454110500089610e-05 -3.9604161062118900e-04 0.0000000000000000e+00  -9.6454110517175606e-05 -3.9604161065891869e-04 0.0000000000000000e+00  -9.6454110512525612e-05 -3.9604161065527632e-04 0.0000000000000000e+00  -9.6454110502144254e-05 -3.9604161063697498e-04 0.0000000000000000e+00  -9.6454110508308201e-05 -3.9604161065865849e-04 0.0000000000000000e+00  -9.6454110514147714e-05 -3.9604161065345431e-04 0.0000000000000000e+00  -9.6454110501927970e-05 -3.9604161063281219e-04 0.0000000000000000e+00  -9.6454110518365139e-05 -3.9604161065727071e-04 0.0000000000000000e+00  -9.6454110497602410e-05 -3.9604161065692376e-04 0.0000000000000000e+00  -9.6454110506253543e-05 -3.9604161063628164e-04 0.0000000000000000e+00  -9.6454110522798848e-05 -3.9604161065475536e-04 0.0000000000000000e+00  -9.6454110513715158e-05 -3.9604161064807667e-04 0.0000000000000000e+00  -9.6454110518256990e-05 -3.9604161066620562e-04 0.0000000000000000e+00  -9.6454110517608162e-05 -3.9604161065484209e-04 0.0000000000000000e+00  -9.6454110511119809e-05 -3.9604161063975000e-04 0.0000000000000000e+00  -9.6454110516310481e-05 -3.9604161065423602e-04 0.0000000000000000e+00  -9.6454110503117516e-05 -3.9604161064295924e-04 0.0000000000000000e+00  -9.6454110491222205e-05 -3.9604161064347965e-04 0.0000000000000000e+00  -9.6454110519879092e-05 -3.9604161064304597e-04 0.0000000000000000e+00  -9.6454110521825587e-05 -3.9604161063766833e-04 0.0000000000000000e+00  -9.6454110524420936e-05 -3.9604161065102792e-04 0.0000000000000000e+00  -9.6454110508848893e-05 -3.9604161066464328e-04 0.0000000000000000e+00  -9.6454110518581410e-05 -3.9604161064963792e-04 0.0000000000000000e+00  -9.6454110507443076e-05 -3.9604161065987279e-04 0.0000000000000000e+00  -9.6454110516418630e-05 -3.9604161064148472e-04 0.0000000000000000e+00  -9.6454110514688406e-05 -3.9604161065171959e-04 0.0000000000000000e+00  -9.6454110514580270e-05 -3.9604161065415043e-04 0.0000000000000000e+00  -9.6454110503766343e-05 -3.9604161064738278e-04 0.0000000000000000e+00  -9.6454110516418630e-05 -3.9604161064851035e-04 0.0000000000000000e+00  -9.6454110511444229e-05 -3.9604161065215327e-04 0.0000000000000000e+00  -9.6454110502793095e-05 -3.9604161063975000e-04 0.0000000000000000e+00  -9.6454110519338386e-05 -3.9604161065102570e-04 0.0000000000000000e+00  -9.6454110507983781e-05 -3.9604161064530334e-04 0.0000000000000000e+00  -9.6454110501711698e-05 -3.9604161065909217e-04 0.0000000000000000e+00  -9.6454110517824447e-05 -3.9604161065735744e-04 0.0000000000000000e+00  -9.6454110501062871e-05 -3.9604161065258695e-04 0.0000000000000000e+00  -9.6454110505929136e-05 -3.9604161064660216e-04 0.0000000000000000e+00  -9.6454110506361693e-05 -3.9604161066004626e-04 0.0000000000000000e+00  -9.6454110491546625e-05 -3.9604161065016056e-04 0.0000000000000000e+00  -9.6454110507226805e-05 -3.9604161065440841e-04 0.0000000000000000e+00  -9.6454110499873339e-05 -3.9604161065735744e-04 0.0000000000000000e+00  -9.6454110508308201e-05 -3.9604161063688771e-04 0.0000000000000000e+00  -9.6454110513715158e-05 4.9303460237047213e-04 0.0000000000000000e+00  2.0835338203267865e-04 7.3362787033617513e-04 0.0000000000000000e+00  2.0835338204373119e-04 7.3362787034762431e-04 0.0000000000000000e+00  2.0835338202905343e-04 7.3362787033053750e-04 0.0000000000000000e+00  2.0835338202781551e-04 7.3362787031223584e-04 0.0000000000000000e+00  2.0835338202931868e-04 7.3362787033808322e-04 0.0000000000000000e+00  2.0835338203373970e-04 7.3362787034684412e-04 0.0000000000000000e+00  2.0835338201897349e-04 7.3362787035230752e-04 0.0000000000000000e+00  2.0835338200907039e-04 7.3362787033773682e-04 0.0000000000000000e+00  2.0835338201189986e-04 7.3362787033235918e-04 0.0000000000000000e+00  2.0835338200606409e-04 7.3362787033045000e-04 0.0000000000000000e+00  2.0835338202737343e-04 7.3362787035057377e-04 0.0000000000000000e+00  2.0835338199766415e-04 7.3362787033183876e-04 0.0000000000000000e+00  2.0835338200792092e-04 7.3362787031813347e-04 0.0000000000000000e+00  2.0835338201021986e-04 7.3362787032498562e-04 0.0000000000000000e+00  2.0835338201181141e-04 7.3362787032290591e-04 0.0000000000000000e+00  2.0835338201658613e-04 7.3362787031995493e-04 0.0000000000000000e+00  2.0835338203117551e-04 7.3362787031483749e-04 0.0000000000000000e+00  2.0835338201959244e-04 7.3362787032776313e-04 0.0000000000000000e+00  2.0835338201923874e-04 7.3362787032715403e-04 0.0000000000000000e+00  2.0835338202419029e-04 7.3362787030772513e-04 0.0000000000000000e+00  2.0835338201782402e-04 7.3362787034406953e-04 0.0000000000000000e+00  2.0835338202516290e-04 7.3362787034840439e-04 0.0000000000000000e+00  2.0835338201366825e-04 7.3362787029861783e-04 0.0000000000000000e+00  2.0835338203365128e-04 7.3362787035083496e-04 0.0000000000000000e+00  2.0835338202206818e-04 7.3362787033426640e-04 0.0000000000000000e+00  2.0835338202445554e-04 7.3362787033990425e-04 0.0000000000000000e+00  2.0835338200190834e-04 7.3362787031665895e-04 0.0000000000000000e+00  2.0835338204337753e-04 7.3362787032385805e-04 0.0000000000000000e+00  2.0835338204452700e-04 7.3362787033201537e-04 0.0000000000000000e+00  2.0835338203842598e-04 7.3362787032767445e-04 0.0000000000000000e+00  2.0835338202861132e-04 7.3362787030633735e-04 0.0000000000000000e+00  2.0835338202905340e-04 7.3362787032541931e-04 0.0000000000000000e+00  2.0835338202516290e-04 7.3362787032082229e-04 0.0000000000000000e+00  2.0835338203205970e-04 7.3362787033001632e-04 0.0000000000000000e+00  2.0835338203320917e-04 7.3362787032559690e-04 0.0000000000000000e+00  2.0835338203913334e-04 7.3362787034250633e-04 0.0000000000000000e+00  2.0835338202896498e-04 7.3362787033808279e-04 0.0000000000000000e+00  2.0835338202587026e-04 7.3362787031691916e-04 0.0000000000000000e+00  2.0835338204293542e-04 7.3362787033227146e-04 0.0000000000000000e+00  2.0835338202905340e-04 7.3362787034571557e-04 0.0000000000000000e+00  2.0835338201915032e-04 7.3362787033401031e-04 0.0000000000000000e+00  2.0835338203639231e-04 7.3362787031162825e-04 0.0000000000000000e+00  2.0835338202923026e-04 7.3362787033981751e-04 0.0000000000000000e+00  2.0835338204001756e-04 7.3362787034016446e-04 0.0000000000000000e+00  2.0835338203099865e-04 7.3362787031665895e-04 0.0000000000000000e+00  2.0835338205168905e-04 7.3362787036184850e-04 0.0000000000000000e+00  2.0835338203250181e-04 7.3362787033860732e-04 0.0000000000000000e+00  2.0835338203037973e-04 7.3362787034476147e-04 0.0000000000000000e+00  2.0835338203356284e-04 7.3362787032429174e-04 0.0000000000000000e+00  2.0835338203241340e-04 7.3362787034111855e-04 0.0000000000000000e+00  2.0835338203267865e-04 -8.2263502226643398e-04 0.0000000000000000e+00  -4.8386338304233929e-04 -1.6164148763039149e-03 0.0000000000000000e+00  -4.8386338305226814e-04 -1.6164148762785879e-03 0.0000000000000000e+00  -4.8386338306428728e-04 -1.6164148763334054e-03 0.0000000000000000e+00  -4.8386338305446294e-04 -1.6164148762763326e-03 0.0000000000000000e+00  -4.8386338309229715e-04 -1.6164148763047820e-03 0.0000000000000000e+00  -4.8386338309041590e-04 -1.6164148763320183e-03 0.0000000000000000e+00  -4.8386338307954634e-04 -1.6164148763063420e-03 0.0000000000000000e+00  -4.8386338307087169e-04 -1.6164148762924666e-03 0.0000000000000000e+00  -4.8386338307557485e-04 -1.6164148763377429e-03 0.0000000000000000e+00  -4.8386338305331320e-04 -1.6164148763460672e-03 0.0000000000000000e+00  -4.8386338304024900e-04 -1.6164148763254263e-03 0.0000000000000000e+00  -4.8386338306512342e-04 -1.6164148763592534e-03 0.0000000000000000e+00  -4.8386338303889022e-04 -1.6164148763424242e-03 0.0000000000000000e+00  -4.8386338304432500e-04 -1.6164148763051277e-03 0.0000000000000000e+00  -4.8386338305812088e-04 -1.6164148763158875e-03 0.0000000000000000e+00  -4.8386338305143195e-04 -1.6164148763327098e-03 0.0000000000000000e+00  -4.8386338306439174e-04 -1.6164148762935050e-03 0.0000000000000000e+00  -4.8386338307118519e-04 -1.6164148763254285e-03 0.0000000000000000e+00  -4.8386338306031568e-04 -1.6164148763096380e-03 0.0000000000000000e+00  -4.8386338308017344e-04 -1.6164148762950663e-03 0.0000000000000000e+00  -4.8386338307484318e-04 -1.6164148763094690e-03 0.0000000000000000e+00  -4.8386338307191681e-04 -1.6164148763295873e-03 0.0000000000000000e+00  -4.8386338308341336e-04 -1.6164148763217810e-03 0.0000000000000000e+00  -4.8386338306021117e-04 -1.6164148763030506e-03 0.0000000000000000e+00  -4.