<?xml version="1.0"?>
<VTKFile type="UnstructuredGrid"  version="0.1"  >
<UnstructuredGrid>
<Piece  NumberOfPoints="2601" NumberOfCells="5000">
<Points>
<DataArray  type="Float64"  NumberOfComponents="3"  format="ascii">0 0 0  0.02 0 0  0.04 0 0  0.06 0 0  0.08 0 0  0.1 0 0  0.12 0 0  0.14 0 0  0.16 0 0  0.18 0 0  0.2 0 0  0.22 0 0  0.24 0 0  0.26 0 0  0.28 0 0  0.3 0 0  0.32 0 0  0.34 0 0  0.36 0 0  0.38 0 0  0.4 0 0  0.42 0 0  0.44 0 0  0.46 0 0  0.48 0 0  0.5 0 0  0.52 0 0  0.54 0 0  0.5600000000000001 0 0  0.58 0 0  0.6 0 0  0.62 0 0  0.64 0 0  0.66 0 0  0.68 0 0  0.7 0 0  0.72 0 0  0.74 0 0  0.76 0 0  0.78 0 0  0.8 0 0  0.82 0 0  0.84 0 0  0.86 0 0  0.88 0 0  0.9 0 0  0.92 0 0  0.9399999999999999 0 0  0.96 0 0  0.98 0 0  1 0 0  0 0.01313563088723984 0  0.02 0.01313563088723984 0  0.04 0.01313563088723984 0  0.06 0.01313563088723984 0  0.08 0.01313563088723984 0  0.1 0.01313563088723984 0  0.12 0.01313563088723984 0  0.14 0.01313563088723984 0  0.16 0.01313563088723984 0  0.18 0.01313563088723984 0  0.2 0.01313563088723984 0  0.22 0.01313563088723984 0  0.24 0.01313563088723984 0  0.26 0.01313563088723984 0  0.28 0.01313563088723984 0  0.3 0.01313563088723984 0  0.32 0.01313563088723984 0  0.34 0.01313563088723984 0  0.36 0.01313563088723984 0  0.38 0.01313563088723984 0  0.4 0.01313563088723984 0  0.42 0.01313563088723984 0  0.44 0.01313563088723984 0  0.46 0.01313563088723984 0  0.48 0.01313563088723984 0  0.5 0.01313563088723984 0  0.52 0.01313563088723984 0  0.54 0.01313563088723984 0  0.5600000000000001 0.01313563088723984 0  0.58 0.01313563088723984 0  0.6 0.01313563088723984 0  0.62 0.01313563088723984 0  0.64 0.01313563088723984 0  0.66 0.01313563088723984 0  0.68 0.01313563088723984 0  0.7 0.01313563088723984 0  0.72 0.01313563088723984 0  0.74 0.01313563088723984 0  0.76 0.01313563088723984 0  0.78 0.01313563088723984 0  0.8 0.01313563088723984 0  0.82 0.01313563088723984 0  0.84 0.01313563088723984 0  0.86 0.01313563088723984 0  0.88 0.01313563088723984 0  0.9 0.01313563088723984 0  0.92 0.01313563088723984 0  0.9399999999999999 0.01313563088723984 0  0.96 0.01313563088723984 0  0.98 0.01313563088723984 0  1 0.01313563088723984 0  0 0.02664639863733726 0  0.02 0.02664639863733726 0  0.04 0.02664639863733726 0  0.06 0.02664639863733726 0  0.08 0.02664639863733726 0  0.1 0.02664639863733726 0  0.12 0.02664639863733726 0  0.14 0.02664639863733726 0  0.16 0.02664639863733726 0  0.18 0.02664639863733726 0  0.2 0.02664639863733726 0  0.22 0.02664639863733726 0  0.24 0.02664639863733726 0  0.26 0.02664639863733726 0  0.28 0.02664639863733726 0  0.3 0.02664639863733726 0  0.32 0.02664639863733726 0  0.34 0.02664639863733726 0  0.36 0.02664639863733726 0  0.38 0.02664639863733726 0  0.4 0.02664639863733726 0  0.42 0.02664639863733726 0  0.44 0.02664639863733726 0  0.46 0.02664639863733726 0  0.48 0.02664639863733726 0  0.5 0.02664639863733726 0  0.52 0.02664639863733726 0  0.54 0.02664639863733726 0  0.5600000000000001 0.02664639863733726 0  0.58 0.02664639863733726 0  0.6 0.02664639863733726 0  0.62 0.02664639863733726 0  0.64 0.02664639863733726 0  0.66 0.02664639863733726 0  0.68 0.02664639863733726 0  0.7 0.02664639863733726 0  0.72 0.02664639863733726 0  0.74 0.02664639863733726 0  0.76 0.02664639863733726 0  0.78 0.02664639863733726 0  0.8 0.02664639863733726 0  0.82 0.02664639863733726 0  0.84 0.02664639863733726 0  0.86 0.02664639863733726 0  0.88 0.02664639863733726 0  0.9 0.02664639863733726 0  0.92 0.02664639863733726 0  0.9399999999999999 0.02664639863733726 0  0.96 0.02664639863733726 0  0.98 0.02664639863733726 0  1 0.02664639863733726 0  0 0.04101652939099896 0  0.02 0.04101652939099896 0  0.04 0.04101652939099896 0  0.06 0.04101652939099896 0  0.08 0.04101652939099896 0  0.1 0.04101652939099896 0  0.12 0.04101652939099896 0  0.14 0.04101652939099896 0  0.16 0.04101652939099896 0  0.18 0.04101652939099896 0  0.2 0.04101652939099896 0  0.22 0.04101652939099896 0  0.24 0.04101652939099896 0  0.26 0.04101652939099896 0  0.28 0.04101652939099896 0  0.3 0.04101652939099896 0  0.32 0.04101652939099896 0  0.34 0.04101652939099896 0  0.36 0.04101652939099896 0  0.38 0.04101652939099896 0  0.4 0.04101652939099896 0  0.42 0.04101652939099896 0  0.44 0.04101652939099896 0  0.46 0.04101652939099896 0  0.48 0.04101652939099896 0  0.5 0.04101652939099896 0  0.52 0.04101652939099896 0  0.54 0.04101652939099896 0  0.5600000000000001 0.04101652939099896 0  0.58 0.04101652939099896 0  0.6 0.04101652939099896 0  0.62 0.04101652939099896 0  0.64 0.04101652939099896 0  0.66 0.04101652939099896 0  0.68 0.04101652939099896 0  0.7 0.04101652939099896 0  0.72 0.04101652939099896 0  0.74 0.04101652939099896 0  0.76 0.04101652939099896 0  0.78 0.04101652939099896 0  0.8 0.04101652939099896 0  0.82 0.04101652939099896 0  0.84 0.04101652939099896 0  0.86 0.04101652939099896 0  0.88 0.04101652939099896 0  0.9 0.04101652939099896 0  0.92 0.04101652939099896 0  0.9399999999999999 0.04101652939099896 0  0.96 0.04101652939099896 0  0.98 0.04101652939099896 0  1 0.04101652939099896 0  0 0.05705811164099547 0  0.02 0.05705811164099547 0  0.04 0.05705811164099547 0  0.06 0.05705811164099547 0  0.08 0.05705811164099547 0  0.1 0.05705811164099547 0  0.12 0.05705811164099547 0  0.14 0.05705811164099547 0  0.16 0.05705811164099547 0  0.18 0.05705811164099547 0  0.2 0.05705811164099547 0  0.22 0.05705811164099547 0  0.24 0.05705811164099547 0  0.26 0.05705811164099547 0  0.28 0.05705811164099547 0  0.3 0.05705811164099547 0  0.32 0.05705811164099547 0  0.34 0.05705811164099547 0  0.36 0.05705811164099547 0  0.38 0.05705811164099547 0  0.4 0.05705811164099547 0  0.42 0.05705811164099547 0  0.44 0.05705811164099547 0  0.46 0.05705811164099547 0  0.48 0.05705811164099547 0  0.5 0.05705811164099547 0  0.52 0.05705811164099547 0  0.54 0.05705811164099547 0  0.5600000000000001 0.05705811164099547 0  0.58 0.05705811164099547 0  0.6 0.05705811164099547 0  0.62 0.05705811164099547 0  0.64 0.05705811164099547 0  0.66 0.05705811164099547 0  0.68 0.05705811164099547 0  0.7 0.05705811164099547 0  0.72 0.05705811164099547 0  0.74 0.05705811164099547 0  0.76 0.05705811164099547 0  0.78 0.05705811164099547 0  0.8 0.05705811164099547 0  0.82 0.05705811164099547 0  0.84 0.05705811164099547 0  0.86 0.05705811164099547 0  0.88 0.05705811164099547 0  0.9 0.05705811164099547 0  0.92 0.05705811164099547 0  0.9399999999999999 0.05705811164099547 0  0.96 0.05705811164099547 0  0.98 0.05705811164099547 0  1 0.05705811164099547 0  0 0.07667714377545 0  0.02 0.07667714377545 0  0.04 0.07667714377545 0  0.06 0.07667714377545 0  0.08 0.07667714377545 0  0.1 0.07667714377545 0  0.12 0.07667714377545 0  0.14 0.07667714377545 0  0.16 0.07667714377545 0  0.18 0.07667714377545 0  0.2 0.07667714377545 0  0.22 0.07667714377545 0  0.24 0.07667714377545 0  0.26 0.07667714377545 0  0.28 0.07667714377545 0  0.3 0.07667714377545 0  0.32 0.07667714377545 0  0.34 0.07667714377545 0  0.36 0.07667714377545 0  0.38 0.07667714377545 0  0.4 0.07667714377545 0  0.42 0.07667714377545 0  0.44 0.07667714377545 0  0.46 0.07667714377545 0  0.48 0.07667714377545 0  0.5 0.07667714377545 0  0.52 0.07667714377545 0  0.54 0.07667714377545 0  0.5600000000000001 0.07667714377545 0  0.58 0.07667714377545 0  0.6 0.07667714377545 0  0.62 0.07667714377545 0  0.64 0.07667714377545 0  0.66 0.07667714377545 0  0.68 0.07667714377545 0  0.7 0.07667714377545 0  0.72 0.07667714377545 0  0.74 0.07667714377545 0  0.76 0.07667714377545 0  0.78 0.07667714377545 0  0.8 0.07667714377545 0  0.82 0.07667714377545 0  0.84 0.07667714377545 0  0.86 0.07667714377545 0  0.88 0.07667714377545 0  0.9 0.07667714377545 0  0.92 0.07667714377545 0  0.9399999999999999 0.07667714377545 0  0.96 0.07667714377545 0  0.98 0.07667714377545 0  1 0.07667714377545 0  0 0.1098730133816912 0  0.02 0.1098730133816912 0  0.04 0.1098730133816912 0  0.06 0.1098730133816912 0  0.08 0.1098730133816912 0  0.1 0.1098730133816912 0  0.12 0.1098730133816912 0  0.14 0.1098730133816912 0  0.16 0.1098730133816912 0  0.18 0.1098730133816912 0  0.2 0.1098730133816912 0  0.22 0.1098730133816912 0  0.24 0.1098730133816912 0  0.26 0.1098730133816912 0  0.28 0.1098730133816912 0  0.3 0.1098730133816912 0  0.32 0.1098730133816912 0  0.34 0.1098730133816912 0  0.36 0.1098730133816912 0  0.38 0.1098730133816912 0  0.4 0.1098730133816912 0  0.42 0.1098730133816912 0  0.44 0.1098730133816912 0  0.46 0.1098730133816912 0  0.48 0.1098730133816912 0  0.5 0.1098730133816912 0  0.52 0.1098730133816912 0  0.54 0.1098730133816912 0  0.5600000000000001 0.1098730133816912 0  0.58 0.1098730133816912 0  0.6 0.1098730133816912 0  0.62 0.1098730133816912 0  0.64 0.1098730133816912 0  0.66 0.1098730133816912 0  0.68 0.1098730133816912 0  0.7 0.1098730133816912 0  0.72 0.1098730133816912 0  0.74 0.1098730133816912 0  0.76 0.1098730133816912 0  0.78 0.1098730133816912 0  0.8 0.1098730133816912 0  0.82 0.1098730133816912 0  0.84 0.1098730133816912 0  0.86 0.1098730133816912 0  0.88 0.1098730133816912 0  0.9 0.1098730133816912 0  0.92 0.1098730133816912 0  0.9399999999999999 0.1098730133816912 0  0.96 0.1098730133816912 0  0.98 0.1098730133816912 0  1 0.1098730133816912 0  0 0.1603283563168221 0  0.02 0.1603283563168221 0  0.04 0.1603283563168221 0  0.06 0.1603283563168221 0  0.08 0.1603283563168221 0  0.1 0.1603283563168221 0  0.12 0.1603283563168221 0  0.14 0.1603283563168221 0  0.16 0.1603283563168221 0  0.18 0.1603283563168221 0  0.2 0.1603283563168221 0  0.22 0.1603283563168221 0  0.24 0.1603283563168221 0  0.26 0.1603283563168221 0  0.28 0.1603283563168221 0  0.3 0.1603283563168221 0  0.32 0.1603283563168221 0  0.34 0.1603283563168221 0  0.36 0.1603283563168221 0  0.38 0.1603283563168221 0  0.4 0.1603283563168221 0  0.42 0.1603283563168221 0  0.44 0.1603283563168221 0  0.46 0.1603283563168221 0  0.48 0.1603283563168221 0  0.5 0.1603283563168221 0  0.52 0.1603283563168221 0  0.54 0.1603283563168221 0  0.5600000000000001 0.1603283563168221 0  0.58 0.1603283563168221 0 
[...]
<PointData  Vectors="u_paraw"> 
<DataArray  type="Float64"  Name="u_paraw"  NumberOfComponents="3" format="ascii">-5.5930831504926186e-04 -1.5243155806894692e-03 0.0000000000000000e+00  -5.5930831504912980e-04 -1.5243155806898812e-03 0.0000000000000000e+00  -5.5930831504638937e-04 -1.5243155806934591e-03 0.0000000000000000e+00  -5.5930831504062825e-04 -1.5243155806856743e-03 0.0000000000000000e+00  -5.5930831504747900e-04 -1.5243155806967874e-03 0.0000000000000000e+00  -5.5930831504884899e-04 -1.5243155806937091e-03 0.0000000000000000e+00  -5.5930831504571261e-04 -1.5243155806877221e-03 0.0000000000000000e+00  -5.5930831504879955e-04 -1.5243155806981326e-03 0.0000000000000000e+00  -5.5930831504997158e-04 -1.5243155806965714e-03 0.0000000000000000e+00  -5.5930831504860147e-04 -1.5243155806988569e-03 0.0000000000000000e+00  -5.5930831505007067e-04 -1.5243155806986531e-03 0.0000000000000000e+00  -5.5930831504513473e-04 -1.5243155806913130e-03 0.0000000000000000e+00  -5.5930831504336846e-04 -1.5243155806932082e-03 0.0000000000000000e+00  -5.5930831505043377e-04 -1.5243155806927203e-03 0.0000000000000000e+00  -5.5930831504582808e-04 -1.5243155806914130e-03 0.0000000000000000e+00  -5.5930831504665348e-04 -1.5243155806902700e-03 0.0000000000000000e+00  -5.5930831504744593e-04 -1.5243155807003639e-03 0.0000000000000000e+00  -5.5930831504670303e-04 -1.5243155806936247e-03 0.0000000000000000e+00  -5.5930831504102431e-04 -1.5243155806847080e-03 0.0000000000000000e+00  -5.5930831504556397e-04 -1.5243155806915602e-03 0.0000000000000000e+00  -5.5930831504952586e-04 -1.5243155806939500e-03 0.0000000000000000e+00  -5.5930831504678554e-04 -1.5243155806944550e-03 0.0000000000000000e+00  -5.5930831505139123e-04 -1.5243155807034864e-03 0.0000000000000000e+00  -5.5930831504151957e-04 -1.5243155806895265e-03 0.0000000000000000e+00  -5.5930831504447445e-04 -1.5243155806884919e-03 0.0000000000000000e+00  -5.5930831504904719e-04 -1.5243155806940864e-03 0.0000000000000000e+00  -5.5930831504640585e-04 -1.5243155806957235e-03 0.0000000000000000e+00  -5.5930831504828781e-04 -1.5243155806950513e-03 0.0000000000000000e+00  -5.5930831505418110e-04 -1.5243155807041346e-03 0.0000000000000000e+00  -5.5930831504379770e-04 -1.5243155806920806e-03 0.0000000000000000e+00  -5.5930831504264215e-04 -1.5243155806953983e-03 0.0000000000000000e+00  -5.5930831504818871e-04 -1.5243155807010687e-03 0.0000000000000000e+00  -5.5930831504391316e-04 -1.5243155806914518e-03 0.0000000000000000e+00  -5.5930831504432592e-04 -1.5243155806952465e-03 0.0000000000000000e+00  -5.5930831504254306e-04 -1.5243155806936503e-03 0.0000000000000000e+00  -5.5930831504983952e-04 -1.5243155806975558e-03 0.0000000000000000e+00  -5.5930831504860147e-04 -1.5243155806948887e-03 0.0000000000000000e+00  -5.5930831504772652e-04 -1.5243155806977402e-03 0.0000000000000000e+00  -5.5930831504421034e-04 -1.5243155806957344e-03 0.0000000000000000e+00  -5.5930831504775948e-04 -1.5243155806978811e-03 0.0000000000000000e+00  -5.5930831504879955e-04 -1.5243155806942250e-03 0.0000000000000000e+00  -5.5930831504741286e-04 -1.5243155807024673e-03 0.0000000000000000e+00  -5.5930831504485414e-04 -1.5243155806988135e-03 0.0000000000000000e+00  -5.5930831504592718e-04 -1.5243155806966668e-03 0.0000000000000000e+00  -5.5930831504708272e-04 -1.5243155806916578e-03 0.0000000000000000e+00  -5.5930831504893161e-04 -1.5243155806968186e-03 0.0000000000000000e+00  -5.5930831504378111e-04 -1.5243155806990280e-03 0.0000000000000000e+00  -5.5930831505078050e-04 -1.5243155807036165e-03 0.0000000000000000e+00  -5.5930831504596014e-04 -1.5243155806974149e-03 0.0000000000000000e+00  -5.5930831504678554e-04 -1.5243155806899664e-03 0.0000000000000000e+00  -5.5930831504926175e-04 -1.8770007080632883e-15 0.0000000000000000e+00  6.3835563567731966e-05 -4.4175215547089750e-04 0.0000000000000000e+00  6.3835563568181340e-05 -4.4175215546870741e-04 0.0000000000000000e+00  6.3835563566544304e-05 -4.4175215547386833e-04 0.0000000000000000e+00  6.3835563569433214e-05 -4.4175215547083245e-04 0.0000000000000000e+00  6.3835563566769004e-05 -4.4175215547675220e-04 0.0000000000000000e+00  6.3835563566094929e-05 -4.4175215547410701e-04 0.0000000000000000e+00  6.3835563573541880e-05 -4.4175215547055023e-04 0.0000000000000000e+00  6.3835563562210964e-05 -4.4175215547005210e-04 0.0000000000000000e+00  6.3835563564522077e-05 -4.4175215548113264e-04 0.0000000000000000e+00  6.3835563575018428e-05 -4.4175215546827341e-04 0.0000000000000000e+00  6.3835563569369016e-05 -4.4175215546981357e-04 0.0000000000000000e+00  6.3835563571648036e-05 -4.4175215547018220e-04 0.0000000000000000e+00  6.3835563573509774e-05 -4.4175215547451841e-04 0.0000000000000000e+00  6.3835563566608515e-05 -4.4175215547642661e-04 0.0000000000000000e+00  6.3835563563527023e-05 -4.4175215548356191e-04 0.0000000000000000e+00  6.3835563566736912e-05 -4.4175215547839986e-04 0.0000000000000000e+00  6.3835563572033226e-05 -4.4175215547384621e-04 0.0000000000000000e+00  6.3835563568277658e-05 -4.4175215547933352e-04 0.0000000000000000e+00  6.3835563572996187e-05 -4.4175215547607966e-04 0.0000000000000000e+00  6.3835563565485052e-05 -4.4175215547436663e-04 0.0000000000000000e+00  6.3835563565838136e-05 -4.4175215547885647e-04 0.0000000000000000e+00  6.3835563570331991e-05 -4.4175215547879017e-04 0.0000000000000000e+00  6.3835563568662848e-05 -4.4175215547458347e-04 0.0000000000000000e+00  6.3835563570909762e-05 -4.4175215547803248e-04 0.0000000000000000e+00  6.3835563567699873e-05 -4.4175215548098026e-04 0.0000000000000000e+00  6.3835563567186287e-05 -4.4175215547421484e-04 0.0000000000000000e+00  6.3835563566769004e-05 -4.4175215547965753e-04 0.0000000000000000e+00  6.3835563567443080e-05 -4.4175215547631819e-04 0.0000000000000000e+00  6.3835563564489984e-05 -4.4175215547580021e-04 0.0000000000000000e+00  6.3835563570043092e-05 -4.4175215547694703e-04 0.0000000000000000e+00  6.3835563570941868e-05 -4.4175215547679524e-04 0.0000000000000000e+00  6.3835563566512211e-05 -4.4175215548399434e-04 0.0000000000000000e+00  6.3835563572225821e-05 -4.4175215547985269e-04 0.0000000000000000e+00  6.3835563567089996e-05 -4.4175215548421118e-04 0.0000000000000000e+00  6.3835563570749273e-05 -4.4175215547961660e-04 0.0000000000000000e+00  6.3835563568149262e-05 -4.4175215547339084e-04 0.0000000000000000e+00  6.3835563568052957e-05 -4.4175215548236804e-04 0.0000000000000000e+00  6.3835563569080130e-05 -4.4175215547714218e-04 0.0000000000000000e+00  6.3835563576880165e-05 -4.4175215547269695e-04 0.0000000000000000e+00  6.3835563566993705e-05 -4.4175215548488339e-04 0.0000000000000000e+00  6.3835563568085063e-05 -4.4175215547733978e-04 0.0000000000000000e+00  6.3835563567186287e-05 -4.4175215548219456e-04 0.0000000000000000e+00  6.3835563564650473e-05 -4.4175215548206446e-04 0.0000000000000000e+00  6.3835563577201157e-05 -4.4175215547770597e-04 0.0000000000000000e+00  6.3835563572739408e-05 -4.4175215547694703e-04 0.0000000000000000e+00  6.3835563559643045e-05 -4.4175215548980566e-04 0.0000000000000000e+00  6.3835563565998638e-05 -4.4175215547859745e-04 0.0000000000000000e+00  6.3835563568438147e-05 -4.4175215547850828e-04 0.0000000000000000e+00  6.3835563574729529e-05 -4.4175215547527735e-04 0.0000000000000000e+00  6.3835563572097424e-05 -4.4175215547560262e-04 0.0000000000000000e+00  6.3835563567731979e-05 -8.4902706085353112e-04 0.0000000000000000e+00  1.8113844123468736e-05 1.1991439010836623e-04 0.0000000000000000e+00  1.8113844109525886e-05 1.1991439009639664e-04 0.0000000000000000e+00  1.8113844115923906e-05 1.1991439010697846e-04 0.0000000000000000e+00  1.8113844121657976e-05 1.1991439011213922e-04 0.0000000000000000e+00  1.8113844114475296e-05 1.1991439010906009e-04 0.0000000000000000e+00  1.8113844115501395e-05 1.1991439010524378e-04 0.0000000000000000e+00  1.8113844121597617e-05 1.1991439010411605e-04 0.0000000000000000e+00  1.8113844114414940e-05 1.1991439011226941e-04 0.0000000000000000e+00  1.8113844113388841e-05 1.1991439010381263e-04 0.0000000000000000e+00  1.8113844116286056e-05 1.1991439009921545e-04 0.0000000000000000e+00  1.8113844111155571e-05 1.1991439009982277e-04 0.0000000000000000e+00  1.8113844115863546e-05 1.1991439009886867e-04 0.0000000000000000e+00  1.8113844116527491e-05 1.1991439010398594e-04 0.0000000000000000e+00  1.8113844117493231e-05 1.1991439011278966e-04 0.0000000000000000e+00  1.8113844116587851e-05 1.1991439010303218e-04 0.0000000000000000e+00  1.8113844123468736e-05 1.1991439010958043e-04 0.0000000000000000e+00  1.8113844119424706e-05 1.1991439010233796e-04 0.0000000000000000e+00  1.8113844113026690e-05 1.1991439009665708e-04 0.0000000000000000e+00  1.8113844113147406e-05 1.1991439009977924e-04 0.0000000000000000e+00  1.8113844116104981e-05 1.1991439009496538e-04 0.0000000000000000e+00  1.8113844112664536e-05 1.1991439010450670e-04 0.0000000000000000e+00  1.8113844116708566e-05 1.1991439010181754e-04 0.0000000000000000e+00  1.8113844118579686e-05 1.1991439010290174e-04 0.0000000000000000e+00  1.8113844124675911e-05 1.1991439011101191e-04 0.0000000000000000e+00  1.8113844116768926e-05 1.1991439010342216e-04 0.0000000000000000e+00  1.8113844117312155e-05 1.1991439010511351e-04 0.0000000000000000e+00  1.8113844116587851e-05 1.1991439010615435e-04 0.0000000000000000e+00  1.8113844115139241e-05 1.1991439010108028e-04 0.0000000000000000e+00  1.8113844116829286e-05 1.1991439010676218e-04 0.0000000000000000e+00  1.8113844116406775e-05 1.1991439010242469e-04 0.0000000000000000e+00  1.8113844119243631e-05 1.1991439010446299e-04 0.0000000000000000e+00  1.8113844114354581e-05 1.1991439010077670e-04 0.0000000000000000e+00  1.8113844117432871e-05 1.1991439009839146e-04 0.0000000000000000e+00  1.8113844114837450e-05 1.1991439009583274e-04 0.0000000000000000e+00  1.8113844119243631e-05 1.1991439010316263e-04 0.0000000000000000e+00  1.8113844115803186e-05 1.1991439009314392e-04 0.0000000000000000e+00  1.8113844120571521e-05 1.1991439010901664e-04 0.0000000000000000e+00  1.8113844117855381e-05 1.1991439010533035e-04 0.0000000000000000e+00  1.8113844115078885e-05 1.1991439008997805e-04 0.0000000000000000e+00  1.8113844119786860e-05 1.1991439009947566e-04 0.0000000000000000e+00  1.8113844117613946e-05 1.1991439010160138e-04 0.0000000000000000e+00  1.8113844114475296e-05 1.1991439009808788e-04 0.0000000000000000e+00  1.8113844117613946e-05 1.1991439010368237e-04 0.0000000000000000e+00  1.8113844119243631e-05 1.1991439010645792e-04 0.0000000000000000e+00  1.8113844122261565e-05 1.1991439010021292e-04 0.0000000000000000e+00  1.8113844116950001e-05 1.1991439010238132e-04 0.0000000000000000e+00  1.8113844117251796e-05 1.1991439011101225e-04 0.0000000000000000e+00  1.8113844117432871e-05 1.1991439010398594e-04 0.0000000000000000e+00  1.8113844123166942e-05 1.1991439011122841e-04 0.0000000000000000e+00  1.8113844117734666e-05 1.1991439010060323e-04 0.0000000000000000e+00  1.8113844123468736e-05 -3.0219039251540178e-04 0.0000000000000000e+00  1.6874035813399543e-04 2.4111627632585064e-04 0.0000000000000000e+00  1.6874035813042686e-04 2.4111627632836599e-04 0.0000000000000000e+00  1.6874035813702333e-04 2.4111627633790702e-04 0.0000000000000000e+00  1.6874035813453615e-04 2.4111627632515670e-04 0.0000000000000000e+00  1.6874035813475242e-04 2.4111627632888635e-04 0.0000000000000000e+00  1.6874035813745588e-04 2.4111627633747343e-04 0.0000000000000000e+00  1.6874035813042686e-04 2.4111627632975355e-04 0.0000000000000000e+00  1.6874035813313032e-04 2.4111627633287641e-04 0.0000000000000000e+00  1.6874035813248148e-04 2.4111627633513155e-04 0.0000000000000000e+00  1.6874035813140009e-04 2.4111627632446265e-04 0.0000000000000000e+00  1.6874035813421170e-04 2.4111627633530502e-04 0.0000000000000000e+00  1.6874035813183263e-04 2.4111627633114168e-04 0.0000000000000000e+00  1.6874035813529311e-04 2.4111627633036071e-04 0.0000000000000000e+00  1.6874035813410358e-04 2.4111627633608529e-04 0.0000000000000000e+00  1.6874035812696638e-04 2.4111627631787135e-04 0.0000000000000000e+00  1.6874035813388731e-04 2.4111627632732494e-04 0.0000000000000000e+00  1.6874035813258962e-04 2.4111627633105460e-04 0.0000000000000000e+00  1.6874035813096752e-04 2.4111627632515719e-04 0.0000000000000000e+00  1.6874035813258962e-04 2.4111627632515654e-04 0.0000000000000000e+00  1.6874035813399543e-04 2.4111627633339647e-04 0.0000000000000000e+00  1.6874035813140009e-04 2.4111627631891218e-04 0.0000000000000000e+00  1.6874035812739895e-04 2.4111627632064626e-04 0.0000000000000000e+00  1.6874035813605007e-04 2.4111627632897293e-04 0.0000000000000000e+00  1.6874035812577685e-04 2.4111627630763648e-04 0.0000000000000000e+00  1.6874035813875356e-04 2.4111627632480959e-04 0.0000000000000000e+00  1.6874035813323847e-04 2.4111627633079439e-04 0.0000000000000000e+00  1.6874035813161639e-04 2.4111627632472286e-04 0.0000000000000000e+00  1.6874035812988614e-04 2.4111627632871272e-04 0.0000000000000000e+00  1.6874035813280590e-04 2.4111627632177518e-04 0.0000000000000000e+00  1.6874035812999429e-04 2.4111627631943195e-04 0.0000000000000000e+00  1.6874035813010244e-04 2.4111627632663105e-04 0.0000000000000000e+00  1.6874035813215708e-04 2.4111627632402897e-04 0.0000000000000000e+00  1.6874035813204893e-04 2.4111627632324834e-04 0.0000000000000000e+00  1.6874035813302219e-04 2.4111627632255445e-04 0.0000000000000000e+00  1.6874035813356289e-04 2.4111627632307622e-04 0.0000000000000000e+00  1.6874035813118382e-04 2.4111627633018723e-04 0.0000000000000000e+00  1.6874035813615822e-04 2.4111627632255445e-04 0.0000000000000000e+00  1.6874035813085940e-04 2.4111627631856459e-04 0.0000000000000000e+00  1.6874035813442800e-04 2.4111627632680452e-04 0.0000000000000000e+00  1.6874035813302219e-04 2.4111627632324834e-04 0.0000000000000000e+00  1.6874035813334661e-04 2.4111627632264254e-04 0.0000000000000000e+00  1.6874035813507684e-04 2.4111627633409036e-04 0.0000000000000000e+00  1.6874035813507684e-04 2.4111627632515654e-04 0.0000000000000000e+00  1.6874035813399543e-04 2.4111627632272792e-04 0.0000000000000000e+00  1.6874035813410358e-04 2.4111627632220751e-04 0.0000000000000000e+00  1.6874035813540126e-04 2.4111627632333508e-04 0.0000000000000000e+00  1.6874035813453615e-04 2.4111627632515789e-04 0.0000000000000000e+00  1.6874035813421173e-04 2.4111627632689126e-04 0.0000000000000000e+00  1.6874035813583380e-04 2.4111627632749841e-04 0.0000000000000000e+00  1.6874035813226520e-04 2.4111627632897293e-04 0.0000000000000000e+00  1.6874035813399543e-04 4.5934297226313644e-04 0.0000000000000000e+00  -1.6481947815121895e-04 -5.3293128616750316e-04 0.0000000000000000e+00  -1.6481947815661261e-04 -5.3293128617027871e-04 0.0000000000000000e+00  -1.6481947815590525e-04 -5.3293128618008012e-04 0.0000000000000000e+00  -1.6481947815988416e-04 -5.3293128616906430e-04 0.0000000000000000e+00  -1.6481947815307578e-04 -5.3293128616533464e-04 0.0000000000000000e+00  -1.6481947815493261e-04 -5.3293128616039112e-04 0.0000000000000000e+00  -1.6481947816262519e-04 -5.3293128616993144e-04 0.0000000000000000e+00  -1.6481947815723152e-04 -5.3293128616438098e-04 0.0000000000000000e+00  -1.6481947816023783e-04 -5.3293128617236071e-04 0.0000000000000000e+00  -1.6481947816262519e-04 -5.3293128616516095e-04 0.0000000000000000e+00  -1.6481947816271360e-04 -5.3293128616568202e-04 0.0000000000000000e+00  -1.6481947816182941e-04 -5.3293128617435564e-04 0.0000000000000000e+00  -1.6481947816200624e-04 -5.3293128617227332e-04 0.0000000000000000e+00  -1.6481947816085677e-04 -5.3293128617331416e-04 0.0000000000000000e+00  -1.6481947816244835e-04 -5.3293128616221333e-04 0.0000000000000000e+00  -1.6481947815387155e-04 -5.3293128616802325e-04 0.0000000000000000e+00  -1.6481947816324413e-04 -5.3293128617270700e-04 0.0000000000000000e+00  -1.6481947815793891e-04 -5.3293128616767771e-04 0.0000000000000000e+00  -1.6481947816571991e-04 -5.3293128617860506e-04 0.0000000000000000e+00  -1.6481947815475578e-04 -5.3293128616307929e-04 0.0000000000000000e+00  -1.6481947815785047e-04 -5.3293128616602973e-04 0.0000000000000000e+00  -1.6481947816368624e-04 -5.3293128616975797e-04 0.0000000000000000e+00  -1.6481947816129888e-04 -5.3293128617695707e-04 0.0000000000000000e+00  -1.6481947816182941e-04 -5.3293128617088695e-04 0.0000000000000000e+00  -1.6481947815342947e-04 -5.3293128616724262e-04 0.0000000000000000e+00  -1.6481947815979572e-04 -5.3293128617088554e-04 0.0000000000000000e+00  -1.6481947816156413e-04 -5.3293128617487541e-04 0.0000000000000000e+00  -1.6481947815634733e-04 -5.3293128616923756e-04 0.0000000000000000e+00  -1.6481947815864627e-04 -5.3293128616993437e-04 0.0000000000000000e+00  -1.6481947815404839e-04 -5.3293128617322742e-04 0.0000000000000000e+00  -1.6481947816138730e-04 -5.3293128616620179e-04 0.0000000000000000e+00  -1.6481947815670102e-04 -5.3293128616646200e-04 0.0000000000000000e+00  -1.6481947815714311e-04 -5.3293128617175290e-04 0.0000000000000000e+00  -1.6481947815546314e-04 -5.3293128617166617e-04 0.0000000000000000e+00  -1.6481947815617050e-04 -5.3293128616559756e-04 0.0000000000000000e+00  -1.6481947816315571e-04 -5.3293128617687034e-04 0.0000000000000000e+00  -1.6481947815855786e-04 -5.3293128617270700e-04 0.0000000000000000e+00  -1.6481947816121046e-04 -5.3293128617608971e-04 0.0000000000000000e+00  -1.6481947815369472e-04 -5.3293128616793651e-04 0.0000000000000000e+00  -1.6481947815811574e-04 -5.3293128617843159e-04 0.0000000000000000e+00  -1.6481947815298736e-04 -5.3293128616247506e-04 0.0000000000000000e+00  -1.6481947815926522e-04 -5.3293128617608971e-04 0.0000000000000000e+00  -1.6481947815899994e-04 -5.3293128617071207e-04 0.0000000000000000e+00  -1.6481947815431366e-04 -5.3293128616533443e-04 0.0000000000000000e+00  -1.6481947815546314e-04 -5.3293128616941103e-04 0.0000000000000000e+00  -1.6481947815466733e-04 -5.3293128617036513e-04 0.0000000000000000e+00  -1.6481947815767363e-04 -5.3293128616724555e-04 0.0000000000000000e+00  -1.6481947815174947e-04 -5.3293128616524769e-04 0.0000000000000000e+00  -1.6481947816059152e-04 -5.3293128617244679e-04 0.0000000000000000e+00  -1.6481947815272208e-04 -5.3293128616741610e-04 0.0000000000000000e+00  -1.6481947815121895e-04 -7.9055736474732869e-04 0.0000000000000000e+00  -6.6372516278410878e-04 -3.0719321210856756e-03 0.0000000000000000e+00  -6.6372516278985711e-04 -3.0719321210874104e-03 0.0000000000000000e+00  -6.6372516279048421e-04 -3.0719321210870643e-03 0.0000000000000000e+00  -6.6372516279414220e-04 -3.0719321210979913e-03 0.0000000000000000e+00  -6.6372516279811374e-04 -3.0719321211054506e-03 0.0000000000000000e+00  -6.6372516278954356e-04 -3.0719321210908816e-03 0.0000000000000000e+00  -6.6372516279497823e-04 -3.0719321211078766e-03 0.0000000000000000e+00  -6.6372516278672170e-04 -3.0719321210893203e-03 0.0000000000000000e+00  -6.6372516279017066e-04 -3.0719321210945245e-03 0.0000000000000000e+00  -6.6372516279006603e-04 -3.0719321211000704e-03 0.0000000000000000e+00  -6.6372516279152938e-04 -3.0719321211045859e-03 0.0000000000000000e+00  -6.6372516279006614e-04 -3.0719321211002491e-03 0.0000000000000000e+00  -6.6372516279529178e-04 -3.0719321211080501e-03 0.0000000000000000e+00  -6.6372516279163379e-04 -3.0719321210985091e-03 0.0000000000000000e+00  -6.6372516279445564e-04 -3.0719321210941810e-03 0.0000000000000000e+00  -6.6372516279581436e-04 -3.0719321210964275e-03 0.0000000000000000e+00  -6.6372516279163379e-04 -3.0719321211007643e-03 0.0000000000000000e+00  -6.6372516279581436e-04 -3.0719321210874156e-03 0.0000000000000000e+00  -6.6372516279226089e-04 -3.0719321210979887e-03 0.0000000000000000e+00  -6.6372516279184282e-04 -3.0719321210955601e-03 0.0000000000000000e+00  -6.6372516279435113e-04 -3.0719321210896707e-03 0.0000000000000000e+00  -6.6372516279508274e-04 -3.0719321210993765e-03 0.0000000000000000e+00  -6.6372516279226089e-04 -3.0719321210912233e-03 0.0000000000000000e+00  -6.6372516279393306e-04 -3.0719321210905381e-03 0.0000000000000000e+00  -6.6372516279414209e-04 -3.0719321211063154e-03 0.00