<?xml version="1.0"?>
<VTKFile type="UnstructuredGrid"  version="0.1"  >
<UnstructuredGrid>
<Piece  NumberOfPoints="2601" NumberOfCells="5000">
<Points>
<DataArray  type="Float64"  NumberOfComponents="3"  format="ascii">0 0 0  0.02 0 0  0.04 0 0  0.06 0 0  0.08 0 0  0.1 0 0  0.12 0 0  0.14 0 0  0.16 0 0  0.18 0 0  0.2 0 0  0.22 0 0  0.24 0 0  0.26 0 0  0.28 0 0  0.3 0 0  0.32 0 0  0.34 0 0  0.36 0 0  0.38 0 0  0.4 0 0  0.42 0 0  0.44 0 0  0.46 0 0  0.48 0 0  0.5 0 0  0.52 0 0  0.54 0 0  0.5600000000000001 0 0  0.58 0 0  0.6 0 0  0.62 0 0  0.64 0 0  0.66 0 0  0.68 0 0  0.7 0 0  0.72 0 0  0.74 0 0  0.76 0 0  0.78 0 0  0.8 0 0  0.82 0 0  0.84 0 0  0.86 0 0  0.88 0 0  0.9 0 0  0.92 0 0  0.9399999999999999 0 0  0.96 0 0  0.98 0 0  1 0 0  0 0.01313563088723984 0  0.02 0.01313563088723984 0  0.04 0.01313563088723984 0  0.06 0.01313563088723984 0  0.08 0.01313563088723984 0  0.1 0.01313563088723984 0  0.12 0.01313563088723984 0  0.14 0.01313563088723984 0  0.16 0.01313563088723984 0  0.18 0.01313563088723984 0  0.2 0.01313563088723984 0  0.22 0.01313563088723984 0  0.24 0.01313563088723984 0  0.26 0.01313563088723984 0  0.28 0.01313563088723984 0  0.3 0.01313563088723984 0  0.32 0.01313563088723984 0  0.34 0.01313563088723984 0  0.36 0.01313563088723984 0  0.38 0.01313563088723984 0  0.4 0.01313563088723984 0  0.42 0.01313563088723984 0  0.44 0.01313563088723984 0  0.46 0.01313563088723984 0  0.48 0.01313563088723984 0  0.5 0.01313563088723984 0  0.52 0.01313563088723984 0  0.54 0.01313563088723984 0  0.5600000000000001 0.01313563088723984 0  0.58 0.01313563088723984 0  0.6 0.01313563088723984 0  0.62 0.01313563088723984 0  0.64 0.01313563088723984 0  0.66 0.01313563088723984 0  0.68 0.01313563088723984 0  0.7 0.01313563088723984 0  0.72 0.01313563088723984 0  0.74 0.01313563088723984 0  0.76 0.01313563088723984 0  0.78 0.01313563088723984 0  0.8 0.01313563088723984 0  0.82 0.01313563088723984 0  0.84 0.01313563088723984 0  0.86 0.01313563088723984 0  0.88 0.01313563088723984 0  0.9 0.01313563088723984 0  0.92 0.01313563088723984 0  0.9399999999999999 0.01313563088723984 0  0.96 0.01313563088723984 0  0.98 0.01313563088723984 0  1 0.01313563088723984 0  0 0.02664639863733726 0  0.02 0.02664639863733726 0  0.04 0.02664639863733726 0  0.06 0.02664639863733726 0  0.08 0.02664639863733726 0  0.1 0.02664639863733726 0  0.12 0.02664639863733726 0  0.14 0.02664639863733726 0  0.16 0.02664639863733726 0  0.18 0.02664639863733726 0  0.2 0.02664639863733726 0  0.22 0.02664639863733726 0  0.24 0.02664639863733726 0  0.26 0.02664639863733726 0  0.28 0.02664639863733726 0  0.3 0.02664639863733726 0  0.32 0.02664639863733726 0  0.34 0.02664639863733726 0  0.36 0.02664639863733726 0  0.38 0.02664639863733726 0  0.4 0.02664639863733726 0  0.42 0.02664639863733726 0  0.44 0.02664639863733726 0  0.46 0.02664639863733726 0  0.48 0.02664639863733726 0  0.5 0.02664639863733726 0  0.52 0.02664639863733726 0  0.54 0.02664639863733726 0  0.5600000000000001 0.02664639863733726 0  0.58 0.02664639863733726 0  0.6 0.02664639863733726 0  0.62 0.02664639863733726 0  0.64 0.02664639863733726 0  0.66 0.02664639863733726 0  0.68 0.02664639863733726 0  0.7 0.02664639863733726 0  0.72 0.02664639863733726 0  0.74 0.02664639863733726 0  0.76 0.02664639863733726 0  0.78 0.02664639863733726 0  0.8 0.02664639863733726 0  0.82 0.02664639863733726 0  0.84 0.02664639863733726 0  0.86 0.02664639863733726 0  0.88 0.02664639863733726 0  0.9 0.02664639863733726 0  0.92 0.02664639863733726 0  0.9399999999999999 0.02664639863733726 0  0.96 0.02664639863733726 0  0.98 0.02664639863733726 0  1 0.02664639863733726 0  0 0.04101652939099896 0  0.02 0.04101652939099896 0  0.04 0.04101652939099896 0  0.06 0.04101652939099896 0  0.08 0.04101652939099896 0  0.1 0.04101652939099896 0  0.12 0.04101652939099896 0  0.14 0.04101652939099896 0  0.16 0.04101652939099896 0  0.18 0.04101652939099896 0  0.2 0.04101652939099896 0  0.22 0.04101652939099896 0  0.24 0.04101652939099896 0  0.26 0.04101652939099896 0  0.28 0.04101652939099896 0  0.3 0.04101652939099896 0  0.32 0.04101652939099896 0  0.34 0.04101652939099896 0  0.36 0.04101652939099896 0  0.38 0.04101652939099896 0  0.4 0.04101652939099896 0  0.42 0.04101652939099896 0  0.44 0.04101652939099896 0  0.46 0.04101652939099896 0  0.48 0.04101652939099896 0  0.5 0.04101652939099896 0  0.52 0.04101652939099896 0  0.54 0.04101652939099896 0  0.5600000000000001 0.04101652939099896 0  0.58 0.04101652939099896 0  0.6 0.04101652939099896 0  0.62 0.04101652939099896 0  0.64 0.04101652939099896 0  0.66 0.04101652939099896 0  0.68 0.04101652939099896 0  0.7 0.04101652939099896 0  0.72 0.04101652939099896 0  0.74 0.04101652939099896 0  0.76 0.04101652939099896 0  0.78 0.04101652939099896 0  0.8 0.04101652939099896 0  0.82 0.04101652939099896 0  0.84 0.04101652939099896 0  0.86 0.04101652939099896 0  0.88 0.04101652939099896 0  0.9 0.04101652939099896 0  0.92 0.04101652939099896 0  0.9399999999999999 0.04101652939099896 0  0.96 0.04101652939099896 0  0.98 0.04101652939099896 0  1 0.04101652939099896 0  0 0.05705811164099547 0  0.02 0.05705811164099547 0  0.04 0.05705811164099547 0  0.06 0.05705811164099547 0  0.08 0.05705811164099547 0  0.1 0.05705811164099547 0  0.12 0.05705811164099547 0  0.14 0.05705811164099547 0  0.16 0.05705811164099547 0  0.18 0.05705811164099547 0  0.2 0.05705811164099547 0  0.22 0.05705811164099547 0  0.24 0.05705811164099547 0  0.26 0.05705811164099547 0  0.28 0.05705811164099547 0  0.3 0.05705811164099547 0  0.32 0.05705811164099547 0  0.34 0.05705811164099547 0  0.36 0.05705811164099547 0  0.38 0.05705811164099547 0  0.4 0.05705811164099547 0  0.42 0.05705811164099547 0  0.44 0.05705811164099547 0  0.46 0.05705811164099547 0  0.48 0.05705811164099547 0  0.5 0.05705811164099547 0  0.52 0.05705811164099547 0  0.54 0.05705811164099547 0  0.5600000000000001 0.05705811164099547 0  0.58 0.05705811164099547 0  0.6 0.05705811164099547 0  0.62 0.05705811164099547 0  0.64 0.05705811164099547 0  0.66 0.05705811164099547 0  0.68 0.05705811164099547 0  0.7 0.05705811164099547 0  0.72 0.05705811164099547 0  0.74 0.05705811164099547 0  0.76 0.05705811164099547 0  0.78 0.05705811164099547 0  0.8 0.05705811164099547 0  0.82 0.05705811164099547 0  0.84 0.05705811164099547 0  0.86 0.05705811164099547 0  0.88 0.05705811164099547 0  0.9 0.05705811164099547 0  0.92 0.05705811164099547 0  0.9399999999999999 0.05705811164099547 0  0.96 0.05705811164099547 0  0.98 0.05705811164099547 0  1 0.05705811164099547 0  0 0.07667714377545 0  0.02 0.07667714377545 0  0.04 0.07667714377545 0  0.06 0.07667714377545 0  0.08 0.07667714377545 0  0.1 0.07667714377545 0  0.12 0.07667714377545 0  0.14 0.07667714377545 0  0.16 0.07667714377545 0  0.18 0.07667714377545 0  0.2 0.07667714377545 0  0.22 0.07667714377545 0  0.24 0.07667714377545 0  0.26 0.07667714377545 0  0.28 0.07667714377545 0  0.3 0.07667714377545 0  0.32 0.07667714377545 0  0.34 0.07667714377545 0  0.36 0.07667714377545 0  0.38 0.07667714377545 0  0.4 0.07667714377545 0  0.42 0.07667714377545 0  0.44 0.07667714377545 0  0.46 0.07667714377545 0  0.48 0.07667714377545 0  0.5 0.07667714377545 0  0.52 0.07667714377545 0  0.54 0.07667714377545 0  0.5600000000000001 0.07667714377545 0  0.58 0.07667714377545 0  0.6 0.07667714377545 0  0.62 0.07667714377545 0  0.64 0.07667714377545 0  0.66 0.07667714377545 0  0.68 0.07667714377545 0  0.7 0.07667714377545 0  0.72 0.07667714377545 0  0.74 0.07667714377545 0  0.76 0.07667714377545 0  0.78 0.07667714377545 0  0.8 0.07667714377545 0  0.82 0.07667714377545 0  0.84 0.07667714377545 0  0.86 0.07667714377545 0  0.88 0.07667714377545 0  0.9 0.07667714377545 0  0.92 0.07667714377545 0  0.9399999999999999 0.07667714377545 0  0.96 0.07667714377545 0  0.98 0.07667714377545 0  1 0.07667714377545 0  0 0.1098730133816912 0  0.02 0.1098730133816912 0  0.04 0.1098730133816912 0  0.06 0.1098730133816912 0  0.08 0.1098730133816912 0  0.1 0.1098730133816912 0  0.12 0.1098730133816912 0  0.14 0.1098730133816912 0  0.16 0.1098730133816912 0  0.18 0.1098730133816912 0  0.2 0.1098730133816912 0  0.22 0.1098730133816912 0  0.24 0.1098730133816912 0  0.26 0.1098730133816912 0  0.28 0.1098730133816912 0  0.3 0.1098730133816912 0  0.32 0.1098730133816912 0  0.34 0.1098730133816912 0  0.36 0.1098730133816912 0  0.38 0.1098730133816912 0  0.4 0.1098730133816912 0  0.42 0.1098730133816912 0  0.44 0.1098730133816912 0  0.46 0.1098730133816912 0  0.48 0.1098730133816912 0  0.5 0.1098730133816912 0  0.52 0.1098730133816912 0  0.54 0.1098730133816912 0  0.5600000000000001 0.1098730133816912 0  0.58 0.1098730133816912 0  0.6 0.1098730133816912 0  0.62 0.1098730133816912 0  0.64 0.1098730133816912 0  0.66 0.1098730133816912 0  0.68 0.1098730133816912 0  0.7 0.1098730133816912 0  0.72 0.1098730133816912 0  0.74 0.1098730133816912 0  0.76 0.1098730133816912 0  0.78 0.1098730133816912 0  0.8 0.1098730133816912 0  0.82 0.1098730133816912 0  0.84 0.1098730133816912 0  0.86 0.1098730133816912 0  0.88 0.1098730133816912 0  0.9 0.1098730133816912 0  0.92 0.1098730133816912 0  0.9399999999999999 0.1098730133816912 0  0.96 0.1098730133816912 0  0.98 0.1098730133816912 0  1 0.1098730133816912 0  0 0.1603283563168221 0  0.02 0.1603283563168221 0  0.04 0.1603283563168221 0  0.06 0.1603283563168221 0  0.08 0.1603283563168221 0  0.1 0.1603283563168221 0  0.12 0.1603283563168221 0  0.14 0.1603283563168221 0  0.16 0.1603283563168221 0  0.18 0.1603283563168221 0  0.2 0.1603283563168221 0  0.22 0.1603283563168221 0  0.24 0.1603283563168221 0  0.26 0.1603283563168221 0  0.28 0.1603283563168221 0  0.3 0.1603283563168221 0  0.32 0.1603283563168221 0  0.34 0.1603283563168221 0  0.36 0.1603283563168221 0  0.38 0.1603283563168221 0  0.4 0.1603283563168221 0  0.42 0.1603283563168221 0  0.44 0.1603283563168221 0  0.46 0.1603283563168221 0  0.48 0.1603283563168221 0  0.5 0.1603283563168221 0  0.52 0.1603283563168221 0  0.54 0.1603283563168221 0  0.5600000000000001 0.1603283563168221 0  0.58 0.1603283563168221 0 
[...]
<PointData  Vectors="u_paraw"> 
<DataArray  type="Float64"  Name="u_paraw"  NumberOfComponents="3" format="ascii">1.9519497215568266e-05 3.9275431174189092e-04 0.0000000000000000e+00  1.9519497228642450e-05 3.9275431174736614e-04 0.0000000000000000e+00  1.9519497224895173e-05 3.9275431175017422e-04 0.0000000000000000e+00  1.9519497226397385e-05 3.9275431174667219e-04 0.0000000000000000e+00  1.9519497216294610e-05 3.9275431175674443e-04 0.0000000000000000e+00  1.9519497225126284e-05 3.9275431176245839e-04 0.0000000000000000e+00  1.9519497220916791e-05 3.9275431174457936e-04 0.0000000000000000e+00  1.9519497224796127e-05 3.9275431174806019e-04 0.0000000000000000e+00  1.9519497220669176e-05 3.9275431174204287e-04 0.0000000000000000e+00  1.9519497216608256e-05 3.9275431174021002e-04 0.0000000000000000e+00  1.9519497220438065e-05 3.9275431174836376e-04 0.0000000000000000e+00  1.9519497226645000e-05 3.9275431174512200e-04 0.0000000000000000e+00  1.9519497224251370e-05 3.9275431174077381e-04 0.0000000000000000e+00  1.9519497226446906e-05 3.9275431173388912e-04 0.0000000000000000e+00  1.9519497221345996e-05 3.9275431175482621e-04 0.0000000000000000e+00  1.9519497233297644e-05 3.9275431174681281e-04 0.0000000000000000e+00  1.9519497221345996e-05 3.9275431175136646e-04 0.0000000000000000e+00  1.9519497225126284e-05 3.9275431173937632e-04 0.0000000000000000e+00  1.9519497232026546e-05 3.9275431174701881e-04 0.0000000000000000e+00  1.9519497218968873e-05 3.9275431172931379e-04 0.0000000000000000e+00  1.9519497235295090e-05 3.9275431174791984e-04 0.0000000000000000e+00  1.9519497222319955e-05 3.9275431174276874e-04 0.0000000000000000e+00  1.9519497230705920e-05 3.9275431174353852e-04 0.0000000000000000e+00  1.9519497214891442e-05 3.9275431174810415e-04 0.0000000000000000e+00  1.9519497219282519e-05 3.9275431174359273e-04 0.0000000000000000e+00  1.9519497227354838e-05 3.9275431174633576e-04 0.0000000000000000e+00  1.9519497221263454e-05 3.9275431174384210e-04 0.0000000000000000e+00  1.9519497220091401e-05 3.9275431174340842e-04 0.0000000000000000e+00  1.9519497217483170e-05 3.9275431173913883e-04 0.0000000000000000e+00  1.9519497232092577e-05 3.9275431174509977e-04 0.0000000000000000e+00  1.9519497224944697e-05 3.9275431174707302e-04 0.0000000000000000e+00  1.9519497217978403e-05 3.9275431173689236e-04 0.0000000000000000e+00  1.9519497228246258e-05 3.9275431174261695e-04 0.0000000000000000e+00  1.9519497214132084e-05 3.9275431174351684e-04 0.0000000000000000e+00  1.9519497227833564e-05 3.9275431173960504e-04 0.0000000000000000e+00  1.9519497219942832e-05 3.9275431174658513e-04 0.0000000000000000e+00  1.9519497225406916e-05 3.9275431174627071e-04 0.0000000000000000e+00  1.9519497224796127e-05 3.9275431173782478e-04 0.0000000000000000e+00  1.9519497214412716e-05 3.9275431173787899e-04 0.0000000000000000e+00  1.9519497228510384e-05 3.9275431174816807e-04 0.0000000000000000e+00  1.9519497218093959e-05 3.9275431174660898e-04 0.0000000000000000e+00  1.9519497226727539e-05 3.9275431174154359e-04 0.0000000000000000e+00  1.9519497223673595e-05 3.9275431173804162e-04 0.0000000000000000e+00  1.9519497219315536e-05 3.9275431174931732e-04 0.0000000000000000e+00  1.9519497222187893e-05 3.9275431173873551e-04 0.0000000000000000e+00  1.9519497229649419e-05 3.9275431174415652e-04 0.0000000000000000e+00  1.9519497227404359e-05 3.9275431174467910e-04 0.0000000000000000e+00  1.9519497225902149e-05 3.9275431174502388e-04 0.0000000000000000e+00  1.9519497225060252e-05 3.9275431174195559e-04 0.0000000000000000e+00  1.9519497217730785e-05 3.9275431174679113e-04 0.0000000000000000e+00  1.9519497215568262e-05 -6.6956063932837958e-15 0.0000000000000000e+00  8.1127486709012778e-06 6.6899733646413179e-04 0.0000000000000000e+00  8.1127486710938711e-06 6.6899733645771331e-04 0.0000000000000000e+00  8.1127486616567924e-06 6.6899733645253104e-04 0.0000000000000000e+00  8.1127486750420373e-06 6.6899733645643395e-04 0.0000000000000000e+00  8.1127486722815315e-06 6.6899733647456181e-04 0.0000000000000000e+00  8.1127486586715959e-06 6.6899733645083990e-04 0.0000000000000000e+00  8.1127486700667081e-06 6.6899733646118233e-04 0.0000000000000000e+00  8.1127486685259602e-06 6.6899733646064109e-04 0.0000000000000000e+00  8.1127486703234980e-06 6.6899733646094467e-04 0.0000000000000000e+00  8.1127486670494107e-06 6.6899733645229187e-04 0.0000000000000000e+00  8.1127486652197721e-06 6.6899733645051464e-04 0.0000000000000000e+00  8.1127486708049820e-06 6.6899733645472135e-04 0.0000000000000000e+00  8.1127486734049937e-06 6.6899733646172443e-04 0.0000000000000000e+00  8.1127486699383114e-06 6.6899733645526258e-04 0.0000000000000000e+00  8.1127486765506860e-06 6.6899733645582810e-04 0.0000000000000000e+00  8.1127486731161029e-06 6.6899733646077033e-04 0.0000000000000000e+00  8.1127486701309047e-06 6.6899733645081735e-04 0.0000000000000000e+00  8.1127486680444762e-06 6.6899733645582810e-04 0.0000000000000000e+00  8.1127486795358842e-06 6.6899733646185453e-04 0.0000000000000000e+00  8.1127486672420040e-06 6.6899733645341944e-04 0.0000000000000000e+00  8.1127486794074893e-06 6.6899733645066730e-04 0.0000000000000000e+00  8.1127486695852241e-06 6.6899733645064388e-04 0.0000000000000000e+00  8.1127486775457532e-06 6.6899733645675878e-04 0.0000000000000000e+00  8.1127486646419923e-06 6.6899733644713280e-04 0.0000000000000000e+00  8.1127486715753551e-06 6.6899733645459038e-04 0.0000000000000000e+00  8.1127486719284441e-06 6.6899733646300379e-04 0.0000000000000000e+00  8.1127486615925958e-06 6.6899733645144619e-04 0.0000000000000000e+00  8.1127486664716292e-06 6.6899733645120767e-04 0.0000000000000000e+00  8.1127486667926191e-06 6.6899733645197029e-04 0.0000000000000000e+00  8.1127486802420607e-06 6.6899733645257376e-04 0.0000000000000000e+00  8.1127486705802896e-06 6.6899733644403025e-04 0.0000000000000000e+00  8.1127486665358275e-06 6.6899733645500237e-04 0.0000000000000000e+00  8.1127486707086862e-06 6.6899733645172808e-04 0.0000000000000000e+00  8.1127486674024981e-06 6.6899733644778159e-04 0.0000000000000000e+00  8.1127486704197955e-06 6.6899733645507111e-04 0.0000000000000000e+00  8.1127486704197955e-06 6.6899733645200998e-04 0.0000000000000000e+00  8.1127486758445112e-06 6.6899733645229187e-04 0.0000000000000000e+00  8.1127486657654544e-06 6.6899733643639746e-04 0.0000000000000000e+00  8.1127486657333553e-06 6.6899733644548308e-04 0.0000000000000000e+00  8.1127486660222443e-06 6.6899733644097280e-04 0.0000000000000000e+00  8.1127486664395300e-06 6.6899733645181851e-04 0.0000000000000000e+00  8.1127486721531366e-06 6.6899733645142451e-04 0.0000000000000000e+00  8.1127486724741248e-06 6.6899733644966810e-04 0.0000000000000000e+00  8.1127486758124121e-06 6.6899733646107391e-04 0.0000000000000000e+00  8.1127486673703989e-06 6.6899733644908263e-04 0.0000000000000000e+00  8.1127486753630272e-06 6.6899733645246534e-04 0.0000000000000000e+00  8.1127486724099282e-06 6.6899733645194861e-04 0.0000000000000000e+00  8.1127486736617853e-06 6.6899733644975483e-04 0.0000000000000000e+00  8.1127486724420256e-06 6.6899733645710573e-04 0.0000000000000000e+00  8.1127486649308830e-06 6.6899733645463374e-04 0.0000000000000000e+00  8.1127486709012795e-06 7.0957273122057682e-04 0.0000000000000000e+00  5.5941607781248742e-05 3.5798525362404701e-04 0.0000000000000000e+00  5.5941607775575031e-05 3.5798525362062093e-04 0.0000000000000000e+00  5.5941607787586405e-05 3.5798525363176659e-04 0.0000000000000000e+00  5.5941607783602735e-05 3.5798525361585033e-04 0.0000000000000000e+00  5.5941607778834400e-05 3.5798525362873066e-04 0.0000000000000000e+00  5.5941607765253704e-05 3.5798525361168727e-04 0.0000000000000000e+00  5.5941607780041571e-05 3.5798525361532970e-04 0.0000000000000000e+00  5.5941607775333599e-05 3.5798525361823585e-04 0.0000000000000000e+00  5.5941607773643552e-05 3.5798525361667460e-04 0.0000000000000000e+00  5.5941607773100326e-05 3.5798525361897262e-04 0.0000000000000000e+00  5.5941607776661490e-05 3.5798525361736849e-04 0.0000000000000000e+00  5.5941607776601127e-05 3.5798525359694212e-04 0.0000000000000000e+00  5.5941607786077433e-05 3.5798525361511286e-04 0.0000000000000000e+00  5.5941607774971442e-05 3.5798525361259751e-04 0.0000000000000000e+00  5.5941607781067667e-05 3.5798525360453202e-04 0.0000000000000000e+00  5.5941607779437982e-05 3.5798525360483462e-04 0.0000000000000000e+00  5.5941607782757708e-05 3.5798525360656935e-04 0.0000000000000000e+00  5.5941607778592962e-05 3.5798525361320564e-04 0.0000000000000000e+00  5.5941607785413488e-05 3.5798525362322269e-04 0.0000000000000000e+00  5.5941607777989380e-05 3.5798525362213849e-04 0.0000000000000000e+00  5.5941607775031805e-05 3.5798525360951935e-04 0.0000000000000000e+00  5.5941607781550537e-05 3.5798525361446234e-04 0.0000000000000000e+00  5.5941607778472243e-05 3.5798525361810526e-04 0.0000000000000000e+00  5.5941607776299332e-05 3.5798525361498373e-04 0.0000000000000000e+00  5.5941607782938783e-05 3.5798525361402866e-04 0.0000000000000000e+00  5.5941607779619058e-05 3.5798525360708976e-04 0.0000000000000000e+00  5.5941607774669648e-05 3.5798525362647530e-04 0.0000000000000000e+00  5.5941607773402120e-05 3.5798525360761018e-04 0.0000000000000000e+00  5.5941607770022032e-05 3.5798525361381377e-04 0.0000000000000000e+00  5.5941607786137796e-05 3.5798525361875578e-04 0.0000000000000000e+00  5.5941607779860496e-05 3.5798525361723790e-04 0.0000000000000000e+00  5.5941607779800140e-05 3.5798525361389855e-04 0.0000000000000000e+00  5.5941607772798532e-05 3.5798525360093150e-04 0.0000000000000000e+00  5.5941607765676211e-05 3.5798525360470452e-04 0.0000000000000000e+00  5.5941607774911086e-05 3.5798525361151526e-04 0.0000000000000000e+00  5.5941607774488572e-05 3.5798525361480928e-04 0.0000000000000000e+00  5.5941607778351530e-05 3.5798525360695966e-04 0.0000000000000000e+00  5.5941607780705516e-05 3.5798525361506949e-04 0.0000000000000000e+00  5.5941607781309105e-05 3.5798525360617903e-04 0.0000000000000000e+00  5.5941607784085598e-05 3.5798525362656204e-04 0.0000000000000000e+00  5.5941607773824627e-05 3.5798525360470647e-04 0.0000000000000000e+00  5.5941607779498345e-05 3.5798525361411539e-04 0.0000000000000000e+00  5.5941607783240578e-05 3.5798525362426353e-04 0.0000000000000000e+00  5.5941607771832792e-05 3.5798525360921480e-04 0.0000000000000000e+00  5.5941607778049736e-05 3.5798525360726324e-04 0.0000000000000000e+00  5.5941607783119865e-05 3.5798525361806189e-04 0.0000000000000000e+00  5.5941607775756106e-05 3.5798525360483658e-04 0.0000000000000000e+00  5.5941607778049736e-05 3.5798525362131450e-04 0.0000000000000000e+00  5.5941607778955113e-05 3.5798525360323000e-04 0.0000000000000000e+00  5.5941607780645160e-05 3.5798525361545981e-04 0.0000000000000000e+00  5.5941607781248742e-05 5.9587633744080356e-04 0.0000000000000000e+00  -1.3355136171513892e-04 -1.1166818742209400e-04 0.0000000000000000e+00  -1.3355136171989705e-04 -1.1166818741203260e-04 0.0000000000000000e+00  -1.3355136172130285e-04 -1.1166818741923172e-04 0.0000000000000000e+00  -1.3355136172043774e-04 -1.1166818742382871e-04 0.0000000000000000e+00  -1.3355136171319242e-04 -1.1166818742001232e-04 0.0000000000000000e+00  -1.3355136171795052e-04 -1.1166818742764517e-04 0.0000000000000000e+00  -1.3355136172433076e-04 -1.1166818742495620e-04 0.0000000000000000e+00  -1.3355136172119470e-04 -1.1166818742131343e-04 0.0000000000000000e+00  -1.3355136172249238e-04 -1.1166818742460940e-04 0.0000000000000000e+00  -1.3355136171827497e-04 -1.1166818742894606e-04 0.0000000000000000e+00  -1.3355136172205981e-04 -1.1166818741940523e-04 0.0000000000000000e+00  -1.3355136171978890e-04 -1.1166818742027260e-04 0.0000000000000000e+00  -1.3355136171243546e-04 -1.1166818741810404e-04 0.0000000000000000e+00  -1.3355136171773425e-04 -1.1166818741333355e-04 0.0000000000000000e+00  -1.3355136171070521e-04 -1.1166818742157380e-04 0.0000000000000000e+00  -1.3355136172260053e-04 -1.1166818742816544e-04 0.0000000000000000e+00  -1.3355136171622033e-04 -1.1166818743076752e-04 0.0000000000000000e+00  -1.3355136171038079e-04 -1.1166818742460957e-04 0.0000000000000000e+00  -1.3355136170951567e-04 -1.1166818741532848e-04 0.0000000000000000e+00  -1.3355136172087031e-04 -1.1166818742608377e-04 0.0000000000000000e+00  -1.3355136171686914e-04 -1.1166818742859943e-04 0.0000000000000000e+00  -1.3355136172541214e-04 -1.1166818742990016e-04 0.0000000000000000e+00  -1.3355136171935635e-04 -1.1166818742070613e-04 0.0000000000000000e+00  -1.3355136171903191e-04 -1.1166818741437470e-04 0.0000000000000000e+00  -1.3355136173449583e-04 -1.1166818744056871e-04 0.0000000000000000e+00  -1.3355136171221916e-04 -1.1166818742001224e-04 0.0000000000000000e+00  -1.3355136171546334e-04 -1.1166818740570077e-04 0.0000000000000000e+00  -1.3355136173330630e-04 -1.1166818742946648e-04 0.0000000000000000e+00  -1.3355136170929940e-04 -1.1166818742634460e-04 0.0000000000000000e+00  -1.3355136172043774e-04 -1.1166818742087960e-04 0.0000000000000000e+00  -1.3355136172162727e-04 -1.1166818743493086e-04 0.0000000000000000e+00  -1.3355136171600403e-04 -1.1166818741489480e-04 0.0000000000000000e+00  -1.3355136171622033e-04 -1.1166818742426231e-04 0.0000000000000000e+00  -1.3355136172076216e-04 -1.1166818741957856e-04 0.0000000000000000e+00  -1.3355136171524707e-04 -1.1166818743146204e-04 0.0000000000000000e+00  -1.3355136172249238e-04 -1.1166818742226738e-04 0.0000000000000000e+00  -1.3355136172249238e-04 -1.1166818742434905e-04 0.0000000000000000e+00  -1.3355136171092151e-04 -1.1166818742374189e-04 0.0000000000000000e+00  -1.3355136172519587e-04 -1.1166818742408884e-04 0.0000000000000000e+00  -1.3355136171481450e-04 -1.1166818742695113e-04 0.0000000000000000e+00  -1.3355136171308427e-04 -1.1166818741801793e-04 0.0000000000000000e+00  -1.3355136172833189e-04 -1.1166818742885933e-04 0.0000000000000000e+00  -1.3355136171016452e-04 -1.1166818742790523e-04 0.0000000000000000e+00  -1.3355136172000519e-04 -1.1166818742460925e-04 0.0000000000000000e+00  -1.3355136171340869e-04 -1.1166818742235411e-04 0.0000000000000000e+00  -1.3355136171351684e-04 -1.1166818742538988e-04 0.0000000000000000e+00  -1.3355136170984009e-04 -1.1166818742703849e-04 0.0000000000000000e+00  -1.3355136171957263e-04 -1.1166818742556335e-04 0.0000000000000000e+00  -1.3355136171881566e-04 -1.1166818741680300e-04 0.0000000000000000e+00  -1.3355136170994824e-04 -1.1166818740778244e-04 0.0000000000000000e+00  -1.3355136171513892e-04 -1.2377498167772118e-04 0.0000000000000000e+00  1.6410971908806325e-04 9.6472294006206747e-04 0.0000000000000000e+00  1.6410971909999999e-04 9.6472294006111337e-04 0.0000000000000000e+00  1.6410971909098113e-04 9.6472294007551179e-04 0.0000000000000000e+00  1.6410971908797483e-04 9.6472294008106258e-04 0.0000000000000000e+00  1.6410971907736437e-04 9.6472294006458271e-04 0.0000000000000000e+00  1.6410971908594114e-04 9.6472294009537470e-04 0.0000000000000000e+00  1.6410971908258117e-04 9.6472294008045488e-04 0.0000000000000000e+00  1.6410971907639173e-04 9.6472294007499170e-04 0.0000000000000000e+00  1.6410971907683384e-04 9.6472294007065489e-04 0.0000000000000000e+00  1.6410971908514536e-04 9.6472294008661315e-04 0.0000000000000000e+00  1.6410971907444648e-04 9.6472294006935385e-04 0.0000000000000000e+00  1.6410971908461483e-04 9.6472294007924177e-04 0.0000000000000000e+00  1.6410971907930962e-04 9.6472294006432196e-04 0.0000000000000000e+00  1.6410971907736437e-04 9.6472294006102598e-04 0.0000000000000000e+00  1.6410971907276651e-04 9.6472294006172247e-04 0.0000000000000000e+00  1.6410971909319163e-04 9.6472294008140898e-04 0.0000000000000000e+00  1.6410971908753272e-04 9.6472294006215355e-04 0.0000000000000000e+00  1.6410971908903586e-04 9.6472294006996241e-04 0.0000000000000000e+00  1.6410971908850533e-04 9.6472294006371480e-04 0.0000000000000000e+00  1.6410971908399589e-04 9.6472294007490377e-04 0.0000000000000000e+00  1.6410971907939803e-04 9.6472294005565094e-04 0.0000000000000000e+00  1.6410971908054750e-04 9.6472294006744446e-04 0.0000000000000000e+00  1.6410971908647167e-04 9.6472294007577113e-04 0.0000000000000000e+00  1.6410971908054750e-04 9.6472294006033469e-04 0.0000000000000000e+00  1.6410971908205064e-04 9.6472294007819974e-04 0.0000000000000000e+00  1.6410971908443800e-04 9.6472294007143432e-04 0.0000000000000000e+00  1.6410971908470325e-04 9.6472294007568439e-04 0.0000000000000000e+00  1.6410971908735589e-04 9.6472294006510258e-04 0.0000000000000000e+00  1.6410971909549055e-04 9.6472294007725096e-04 0.0000000000000000e+00  1.6410971909389899e-04 9.6472294007845995e-04 0.0000000000000000e+00  1.6410971908514536e-04 9.6472294006458216e-04 0.0000000000000000e+00  1.6410971908302328e-04 9.6472294006857203e-04 0.0000000000000000e+00  1.6410971908558747e-04 9.6472294006839856e-04 0.0000000000000000e+00  1.6410971908682536e-04 9.6472294006761793e-04 0.0000000000000000e+00  1.6410971909336847e-04 9.6472294007985304e-04 0.0000000000000000e+00  1.6410971909053902e-04 9.6472294006449543e-04 0.0000000000000000e+00  1.6410971908488011e-04 9.6472294007490377e-04 0.0000000000000000e+00  1.6410971909398741e-04 9.6472294008123551e-04 0.0000000000000000e+00  1.6410971909177691e-04 9.6472294008461822e-04 0.0000000000000000e+00  1.6410971909071586e-04 9.6472294006267397e-04 0.0000000000000000e+00  1.6410971908921272e-04 9.6472294008783277e-04 0.0000000000000000e+00  1.6410971908850533e-04 9.6472294007394967e-04 0.0000000000000000e+00  1.6410971909734738e-04 9.6472294008080183e-04 0.0000000000000000e+00  1.6410971909460635e-04 9.6472294008678662e-04 0.0000000000000000e+00  1.6410971908311170e-04 9.6472294006544953e-04 0.0000000000000000e+00  1.6410971908673694e-04 9.6472294007490377e-04 0.0000000000000000e+00  1.6410971909160005e-04 9.6472294007629686e-04 0.0000000000000000e+00  1.6410971909858527e-04 9.6472294009216427e-04 0.0000000000000000e+00  1.6410971909230741e-04 9.6472294006770467e-04 0.0000000000000000e+00  1.6410971909053902e-04 9.6472294008114877e-04 0.0000000000000000e+00  1.6410971908806325e-04 5.4215126893320008e-04 0.0000000000000000e+00  -1.2869254876730912e-04 -3.4987980136753222e-04 0.0000000000000000e+00  -1.2869254876595043e-04 -3.4987980135764429e-04 0.0000000000000000e+00  -1.2869254876511432e-04 -3.4987980135348101e-04 0.0000000000000000e+00  -1.2869254878580819e-04 -3.4987980139164482e-04 0.0000000000000000e+00  -1.2869254878518108e-04 -3.4987980136163410e-04 0.0000000000000000e+00  -1.2869254878883910e-04 -3.4987980138314495e-04 0.0000000000000000e+00  -1.2869254877640186e-04 -3.4987980138245051e-04 0.0000000000000000e+00  -1.2869254877211680e-04 -3.4987980138470620e-04 0.0000000000000000e+00  -1.2869254876302403e-04 -3.4987980136215479e-04 0.0000000000000000e+00  -1.2869254876103826e-04 -3.4987980137290953e-04 0.0000000000000000e+00  -1.2869254876176985e-04 -3.4987980136336910e-04 0.0000000000000000e+00  -1.2869254876396466e-04 -3.4987980139424718e-04 0.0000000000000000e+00  -1.2869254876156082e-04 -3.4987980136284814e-04 0.0000000000000000e+00  -1.2869254876427818e-04 -3.4987980136562370e-04 0.0000000000000000e+00  -1.2869254877378902e-04 -3.4987980138071677e-04 0.0000000000000000e+00  -1.2869254876751813e-04 -3.4987980137013398e-04 0.0000000000000000e+00  -1.2869254877681993e-04 -3.4987980136961356e-04 0.0000000000000000e+00  -1.2869254876521883e-04 -3.4987980135799189e-04 0.0000000000000000e+00  -1.2869254877086259e-04 -3.4987980137429731e-04 0.0000000000000000e+00  -1.2869254876866779e-04 -3.4987980135157244e-04 0.0000000000000000e+00  -1.2869254878549461e-04 -3.4987980138921691e-04 0.0000000000000000e+00  -1.2869254877420706e-04 -3.4987980136944009e-04 0.0000000000000000e+00  -1.2869254877232581e-04 -3.4987980136284814e-04 0.0000000000000000e+00  -1.2869254878340432e-04 -3.4987980138817608e-04 0.0000000000000000e+00  -1.2869254877828312e-04 -3.4987980137273606e-04 0.0000000000000000e+00  -1.2869254877013100e-04 -3.4987980137811371e-04 0.0000000000000000e+00  -1.2869254876804071e-04 -3.4987980136510328e-04 0.00000000000