<?xml version="1.0"?>
<VTKFile type="UnstructuredGrid"  version="0.1"  >
<UnstructuredGrid>
<Piece  NumberOfPoints="2601" NumberOfCells="5000">
<Points>
<DataArray  type="Float64"  NumberOfComponents="3"  format="ascii">0 0 0  0.02 0 0  0.04 0 0  0.06 0 0  0.08 0 0  0.1 0 0  0.12 0 0  0.14 0 0  0.16 0 0  0.18 0 0  0.2 0 0  0.22 0 0  0.24 0 0  0.26 0 0  0.28 0 0  0.3 0 0  0.32 0 0  0.34 0 0  0.36 0 0  0.38 0 0  0.4 0 0  0.42 0 0  0.44 0 0  0.46 0 0  0.48 0 0  0.5 0 0  0.52 0 0  0.54 0 0  0.5600000000000001 0 0  0.58 0 0  0.6 0 0  0.62 0 0  0.64 0 0  0.66 0 0  0.68 0 0  0.7 0 0  0.72 0 0  0.74 0 0  0.76 0 0  0.78 0 0  0.8 0 0  0.82 0 0  0.84 0 0  0.86 0 0  0.88 0 0  0.9 0 0  0.92 0 0  0.9399999999999999 0 0  0.96 0 0  0.98 0 0  1 0 0  0 0.01313563088723984 0  0.02 0.01313563088723984 0  0.04 0.01313563088723984 0  0.06 0.01313563088723984 0  0.08 0.01313563088723984 0  0.1 0.01313563088723984 0  0.12 0.01313563088723984 0  0.14 0.01313563088723984 0  0.16 0.01313563088723984 0  0.18 0.01313563088723984 0  0.2 0.01313563088723984 0  0.22 0.01313563088723984 0  0.24 0.01313563088723984 0  0.26 0.01313563088723984 0  0.28 0.01313563088723984 0  0.3 0.01313563088723984 0  0.32 0.01313563088723984 0  0.34 0.01313563088723984 0  0.36 0.01313563088723984 0  0.38 0.01313563088723984 0  0.4 0.01313563088723984 0  0.42 0.01313563088723984 0  0.44 0.01313563088723984 0  0.46 0.01313563088723984 0  0.48 0.01313563088723984 0  0.5 0.01313563088723984 0  0.52 0.01313563088723984 0  0.54 0.01313563088723984 0  0.5600000000000001 0.01313563088723984 0  0.58 0.01313563088723984 0  0.6 0.01313563088723984 0  0.62 0.01313563088723984 0  0.64 0.01313563088723984 0  0.66 0.01313563088723984 0  0.68 0.01313563088723984 0  0.7 0.01313563088723984 0  0.72 0.01313563088723984 0  0.74 0.01313563088723984 0  0.76 0.01313563088723984 0  0.78 0.01313563088723984 0  0.8 0.01313563088723984 0  0.82 0.01313563088723984 0  0.84 0.01313563088723984 0  0.86 0.01313563088723984 0  0.88 0.01313563088723984 0  0.9 0.01313563088723984 0  0.92 0.01313563088723984 0  0.9399999999999999 0.01313563088723984 0  0.96 0.01313563088723984 0  0.98 0.01313563088723984 0  1 0.01313563088723984 0  0 0.02664639863733726 0  0.02 0.02664639863733726 0  0.04 0.02664639863733726 0  0.06 0.02664639863733726 0  0.08 0.02664639863733726 0  0.1 0.02664639863733726 0  0.12 0.02664639863733726 0  0.14 0.02664639863733726 0  0.16 0.02664639863733726 0  0.18 0.02664639863733726 0  0.2 0.02664639863733726 0  0.22 0.02664639863733726 0  0.24 0.02664639863733726 0  0.26 0.02664639863733726 0  0.28 0.02664639863733726 0  0.3 0.02664639863733726 0  0.32 0.02664639863733726 0  0.34 0.02664639863733726 0  0.36 0.02664639863733726 0  0.38 0.02664639863733726 0  0.4 0.02664639863733726 0  0.42 0.02664639863733726 0  0.44 0.02664639863733726 0  0.46 0.02664639863733726 0  0.48 0.02664639863733726 0  0.5 0.02664639863733726 0  0.52 0.02664639863733726 0  0.54 0.02664639863733726 0  0.5600000000000001 0.02664639863733726 0  0.58 0.02664639863733726 0  0.6 0.02664639863733726 0  0.62 0.02664639863733726 0  0.64 0.02664639863733726 0  0.66 0.02664639863733726 0  0.68 0.02664639863733726 0  0.7 0.02664639863733726 0  0.72 0.02664639863733726 0  0.74 0.02664639863733726 0  0.76 0.02664639863733726 0  0.78 0.02664639863733726 0  0.8 0.02664639863733726 0  0.82 0.02664639863733726 0  0.84 0.02664639863733726 0  0.86 0.02664639863733726 0  0.88 0.02664639863733726 0  0.9 0.02664639863733726 0  0.92 0.02664639863733726 0  0.9399999999999999 0.02664639863733726 0  0.96 0.02664639863733726 0  0.98 0.02664639863733726 0  1 0.02664639863733726 0  0 0.04101652939099896 0  0.02 0.04101652939099896 0  0.04 0.04101652939099896 0  0.06 0.04101652939099896 0  0.08 0.04101652939099896 0  0.1 0.04101652939099896 0  0.12 0.04101652939099896 0  0.14 0.04101652939099896 0  0.16 0.04101652939099896 0  0.18 0.04101652939099896 0  0.2 0.04101652939099896 0  0.22 0.04101652939099896 0  0.24 0.04101652939099896 0  0.26 0.04101652939099896 0  0.28 0.04101652939099896 0  0.3 0.04101652939099896 0  0.32 0.04101652939099896 0  0.34 0.04101652939099896 0  0.36 0.04101652939099896 0  0.38 0.04101652939099896 0  0.4 0.04101652939099896 0  0.42 0.04101652939099896 0  0.44 0.04101652939099896 0  0.46 0.04101652939099896 0  0.48 0.04101652939099896 0  0.5 0.04101652939099896 0  0.52 0.04101652939099896 0  0.54 0.04101652939099896 0  0.5600000000000001 0.04101652939099896 0  0.58 0.04101652939099896 0  0.6 0.04101652939099896 0  0.62 0.04101652939099896 0  0.64 0.04101652939099896 0  0.66 0.04101652939099896 0  0.68 0.04101652939099896 0  0.7 0.04101652939099896 0  0.72 0.04101652939099896 0  0.74 0.04101652939099896 0  0.76 0.04101652939099896 0  0.78 0.04101652939099896 0  0.8 0.04101652939099896 0  0.82 0.04101652939099896 0  0.84 0.04101652939099896 0  0.86 0.04101652939099896 0  0.88 0.04101652939099896 0  0.9 0.04101652939099896 0  0.92 0.04101652939099896 0  0.9399999999999999 0.04101652939099896 0  0.96 0.04101652939099896 0  0.98 0.04101652939099896 0  1 0.04101652939099896 0  0 0.05705811164099547 0  0.02 0.05705811164099547 0  0.04 0.05705811164099547 0  0.06 0.05705811164099547 0  0.08 0.05705811164099547 0  0.1 0.05705811164099547 0  0.12 0.05705811164099547 0  0.14 0.05705811164099547 0  0.16 0.05705811164099547 0  0.18 0.05705811164099547 0  0.2 0.05705811164099547 0  0.22 0.05705811164099547 0  0.24 0.05705811164099547 0  0.26 0.05705811164099547 0  0.28 0.05705811164099547 0  0.3 0.05705811164099547 0  0.32 0.05705811164099547 0  0.34 0.05705811164099547 0  0.36 0.05705811164099547 0  0.38 0.05705811164099547 0  0.4 0.05705811164099547 0  0.42 0.05705811164099547 0  0.44 0.05705811164099547 0  0.46 0.05705811164099547 0  0.48 0.05705811164099547 0  0.5 0.05705811164099547 0  0.52 0.05705811164099547 0  0.54 0.05705811164099547 0  0.5600000000000001 0.05705811164099547 0  0.58 0.05705811164099547 0  0.6 0.05705811164099547 0  0.62 0.05705811164099547 0  0.64 0.05705811164099547 0  0.66 0.05705811164099547 0  0.68 0.05705811164099547 0  0.7 0.05705811164099547 0  0.72 0.05705811164099547 0  0.74 0.05705811164099547 0  0.76 0.05705811164099547 0  0.78 0.05705811164099547 0  0.8 0.05705811164099547 0  0.82 0.05705811164099547 0  0.84 0.05705811164099547 0  0.86 0.05705811164099547 0  0.88 0.05705811164099547 0  0.9 0.05705811164099547 0  0.92 0.05705811164099547 0  0.9399999999999999 0.05705811164099547 0  0.96 0.05705811164099547 0  0.98 0.05705811164099547 0  1 0.05705811164099547 0  0 0.07667714377545 0  0.02 0.07667714377545 0  0.04 0.07667714377545 0  0.06 0.07667714377545 0  0.08 0.07667714377545 0  0.1 0.07667714377545 0  0.12 0.07667714377545 0  0.14 0.07667714377545 0  0.16 0.07667714377545 0  0.18 0.07667714377545 0  0.2 0.07667714377545 0  0.22 0.07667714377545 0  0.24 0.07667714377545 0  0.26 0.07667714377545 0  0.28 0.07667714377545 0  0.3 0.07667714377545 0  0.32 0.07667714377545 0  0.34 0.07667714377545 0  0.36 0.07667714377545 0  0.38 0.07667714377545 0  0.4 0.07667714377545 0  0.42 0.07667714377545 0  0.44 0.07667714377545 0  0.46 0.07667714377545 0  0.48 0.07667714377545 0  0.5 0.07667714377545 0  0.52 0.07667714377545 0  0.54 0.07667714377545 0  0.5600000000000001 0.07667714377545 0  0.58 0.07667714377545 0  0.6 0.07667714377545 0  0.62 0.07667714377545 0  0.64 0.07667714377545 0  0.66 0.07667714377545 0  0.68 0.07667714377545 0  0.7 0.07667714377545 0  0.72 0.07667714377545 0  0.74 0.07667714377545 0  0.76 0.07667714377545 0  0.78 0.07667714377545 0  0.8 0.07667714377545 0  0.82 0.07667714377545 0  0.84 0.07667714377545 0  0.86 0.07667714377545 0  0.88 0.07667714377545 0  0.9 0.07667714377545 0  0.92 0.07667714377545 0  0.9399999999999999 0.07667714377545 0  0.96 0.07667714377545 0  0.98 0.07667714377545 0  1 0.07667714377545 0  0 0.1098730133816912 0  0.02 0.1098730133816912 0  0.04 0.1098730133816912 0  0.06 0.1098730133816912 0  0.08 0.1098730133816912 0  0.1 0.1098730133816912 0  0.12 0.1098730133816912 0  0.14 0.1098730133816912 0  0.16 0.1098730133816912 0  0.18 0.1098730133816912 0  0.2 0.1098730133816912 0  0.22 0.1098730133816912 0  0.24 0.1098730133816912 0  0.26 0.1098730133816912 0  0.28 0.1098730133816912 0  0.3 0.1098730133816912 0  0.32 0.1098730133816912 0  0.34 0.1098730133816912 0  0.36 0.1098730133816912 0  0.38 0.1098730133816912 0  0.4 0.1098730133816912 0  0.42 0.1098730133816912 0  0.44 0.1098730133816912 0  0.46 0.1098730133816912 0  0.48 0.1098730133816912 0  0.5 0.1098730133816912 0  0.52 0.1098730133816912 0  0.54 0.1098730133816912 0  0.5600000000000001 0.1098730133816912 0  0.58 0.1098730133816912 0  0.6 0.1098730133816912 0  0.62 0.1098730133816912 0  0.64 0.1098730133816912 0  0.66 0.1098730133816912 0  0.68 0.1098730133816912 0  0.7 0.1098730133816912 0  0.72 0.1098730133816912 0  0.74 0.1098730133816912 0  0.76 0.1098730133816912 0  0.78 0.1098730133816912 0  0.8 0.1098730133816912 0  0.82 0.1098730133816912 0  0.84 0.1098730133816912 0  0.86 0.1098730133816912 0  0.88 0.1098730133816912 0  0.9 0.1098730133816912 0  0.92 0.1098730133816912 0  0.9399999999999999 0.1098730133816912 0  0.96 0.1098730133816912 0  0.98 0.1098730133816912 0  1 0.1098730133816912 0  0 0.1603283563168221 0  0.02 0.1603283563168221 0  0.04 0.1603283563168221 0  0.06 0.1603283563168221 0  0.08 0.1603283563168221 0  0.1 0.1603283563168221 0  0.12 0.1603283563168221 0  0.14 0.1603283563168221 0  0.16 0.1603283563168221 0  0.18 0.1603283563168221 0  0.2 0.1603283563168221 0  0.22 0.1603283563168221 0  0.24 0.1603283563168221 0  0.26 0.1603283563168221 0  0.28 0.1603283563168221 0  0.3 0.1603283563168221 0  0.32 0.1603283563168221 0  0.34 0.1603283563168221 0  0.36 0.1603283563168221 0  0.38 0.1603283563168221 0  0.4 0.1603283563168221 0  0.42 0.1603283563168221 0  0.44 0.1603283563168221 0  0.46 0.1603283563168221 0  0.48 0.1603283563168221 0  0.5 0.1603283563168221 0  0.52 0.1603283563168221 0  0.54 0.1603283563168221 0  0.5600000000000001 0.1603283563168221 0  0.58 0.1603283563168221 0 
[...]
<PointData  Vectors="u_paraw"> 
<DataArray  type="Float64"  Name="u_paraw"  NumberOfComponents="3" format="ascii">-4.6456803141097637e-05 -2.5970886076226657e-04 0.0000000000000000e+00  -4.6456803122410796e-05 -2.5970886075218349e-04 0.0000000000000000e+00  -4.6456803135088786e-05 -2.5970886076764422e-04 0.0000000000000000e+00  -4.6456803136624023e-05 -2.5970886075931749e-04 0.0000000000000000e+00  -4.6456803123698408e-05 -2.5970886074591675e-04 0.0000000000000000e+00  -4.6456803133305944e-05 -2.5970886074779258e-04 0.0000000000000000e+00  -4.6456803137515433e-05 -2.5970886075941485e-04 0.0000000000000000e+00  -4.6456803134775140e-05 -2.5970886076250521e-04 0.0000000000000000e+00  -4.6456803142963007e-05 -2.5970886075077414e-04 0.0000000000000000e+00  -4.6456803132298964e-05 -2.5970886074732600e-04 0.0000000000000000e+00  -4.6456803141889999e-05 -2.5970886076551929e-04 0.0000000000000000e+00  -4.6456803129641212e-05 -2.5970886074451829e-04 0.0000000000000000e+00  -4.6456803129921844e-05 -2.5970886075135923e-04 0.0000000000000000e+00  -4.6456803135749099e-05 -2.5970886076917267e-04 0.0000000000000000e+00  -4.6456803127643766e-05 -2.5970886076588835e-04 0.0000000000000000e+00  -4.6456803123566339e-05 -2.5970886074772715e-04 0.0000000000000000e+00  -4.6456803132959277e-05 -2.5970886077004003e-04 0.0000000000000000e+00  -4.6456803132942770e-05 -2.5970886074886638e-04 0.0000000000000000e+00  -4.6456803116633056e-05 -2.5970886076297103e-04 0.0000000000000000e+00  -4.6456803131407547e-05 -2.5970886076870646e-04 0.0000000000000000e+00  -4.6456803123681895e-05 -2.5970886074908322e-04 0.0000000000000000e+00  -4.6456803136145286e-05 -2.5970886076029305e-04 0.0000000000000000e+00  -4.6456803128056461e-05 -2.5970886077205665e-04 0.0000000000000000e+00  -4.6456803130037400e-05 -2.5970886076177922e-04 0.0000000000000000e+00  -4.6456803118845106e-05 -2.5970886077283727e-04 0.0000000000000000e+00  -4.6456803129558670e-05 -2.5970886076801257e-04 0.0000000000000000e+00  -4.6456803133421500e-05 -2.5970886076880404e-04 0.0000000000000000e+00  -4.6456803131490081e-05 -2.5970886074811746e-04 0.0000000000000000e+00  -4.6456803140750964e-05 -2.5970886076728762e-04 0.0000000000000000e+00  -4.6456803143705862e-05 -2.5970886076973645e-04 0.0000000000000000e+00  -4.6456803139347796e-05 -2.5970886078700780e-04 0.0000000000000000e+00  -4.6456803122658408e-05 -2.5970886076554059e-04 0.0000000000000000e+00  -4.6456803134378952e-05 -2.5970886075053523e-04 0.0000000000000000e+00  -4.6456803140684929e-05 -2.5970886076243977e-04 0.0000000000000000e+00  -4.6456803141246193e-05 -2.5970886077011739e-04 0.0000000000000000e+00  -4.6456803128419634e-05 -2.5970886074756452e-04 0.0000000000000000e+00  -4.6456803125151083e-05 -2.5970886075828728e-04 0.0000000000000000e+00  -4.6456803121568893e-05 -2.5970886075305058e-04 0.0000000000000000e+00  -4.6456803141757937e-05 -2.5970886075915464e-04 0.0000000000000000e+00  -4.6456803133636097e-05 -2.5970886074797652e-04 0.0000000000000000e+00  -4.6456803133949743e-05 -2.5970886076646363e-04 0.0000000000000000e+00  -4.6456803132100874e-05 -2.5970886076278672e-04 0.0000000000000000e+00  -4.6456803136838613e-05 -2.5970886077304327e-04 0.0000000000000000e+00  -4.6456803124111096e-05 -2.5970886074706579e-04 0.0000000000000000e+00  -4.6456803126191077e-05 -2.5970886075635740e-04 0.0000000000000000e+00  -4.6456803119307322e-05 -2.5970886076195188e-04 0.0000000000000000e+00  -4.6456803134824660e-05 -2.5970886075420130e-04 0.0000000000000000e+00  -4.6456803121634921e-05 -2.5970886073803438e-04 0.0000000000000000e+00  -4.6456803121634921e-05 -2.5970886075815718e-04 0.0000000000000000e+00  -4.6456803137829080e-05 -2.5970886075941485e-04 0.0000000000000000e+00  -4.6456803141097624e-05 2.6851319720613053e-15 0.0000000000000000e+00  -6.4509122178063026e-06 2.7922320718516946e-04 0.0000000000000000e+00  -6.4509122051914325e-06 2.7922320718625366e-04 0.0000000000000000e+00  -6.4509122171643245e-06 2.7922320716886317e-04 0.0000000000000000e+00  -6.4509121942457068e-06 2.7922320719570790e-04 0.0000000000000000e+00  -6.4509122105519516e-06 2.7922320718005202e-04 0.0000000000000000e+00  -6.4509122171964253e-06 2.7922320717833920e-04 0.0000000000000000e+00  -6.4509122150136994e-06 2.7922320717014225e-04 0.0000000000000000e+00  -6.4509122065716871e-06 2.7922320718846565e-04 0.0000000000000000e+00  -6.4509122189939639e-06 2.7922320717170388e-04 0.0000000000000000e+00  -6.4509122040679720e-06 2.7922320716114338e-04 0.0000000000000000e+00  -6.4509122161050624e-06 2.7922320719121952e-04 0.0000000000000000e+00  -6.4509122071815660e-06 2.7922320718766334e-04 0.0000000000000000e+00  -6.4509122029766090e-06 2.7922320717649568e-04 0.0000000000000000e+00  -6.4509122102951600e-06 2.7922320718662213e-04 0.0000000000000000e+00  -6.4509122120926986e-06 2.7922320719256431e-04 0.0000000000000000e+00  -6.4509122111618306e-06 2.7922320717695104e-04 0.0000000000000000e+00  -6.4509122060260056e-06 2.7922320718352131e-04 0.0000000000000000e+00  -6.4509121941173110e-06 2.7922320719711796e-04 0.0000000000000000e+00  -6.4509122064432913e-06 2.7922320718456214e-04 0.0000000000000000e+00  -6.4509122030087082e-06 2.7922320717946639e-04 0.0000000000000000e+00  -6.4509122001519058e-06 2.7922320717732043e-04 0.0000000000000000e+00  -6.4509122127667759e-06 2.7922320718265395e-04 0.0000000000000000e+00  -6.4509122100383684e-06 2.7922320717901103e-04 0.0000000000000000e+00  -6.4509122024630267e-06 2.7922320717228973e-04 0.0000000000000000e+00  -6.4509122003123999e-06 2.7922320718766296e-04 0.0000000000000000e+00  -6.4509121975839932e-06 2.7922320718738107e-04 0.0000000000000000e+00  -6.4509122062185988e-06 2.7922320718482235e-04 0.0000000000000000e+00  -6.4509122030729065e-06 2.7922320717790514e-04 0.0000000000000000e+00  -6.4509122172606228e-06 2.7922320717901260e-04 0.0000000000000000e+00  -6.4509122040037745e-06 2.7922320717944471e-04 0.0000000000000000e+00  -6.4509122092679954e-06 2.7922320718000849e-04 0.0000000000000000e+00  -6.4509121982259714e-06 2.7922320718668718e-04 0.0000000000000000e+00  -6.4509122118359079e-06 2.7922320716712817e-04 0.0000000000000000e+00  -6.4509122102630609e-06 2.7922320717946639e-04 0.0000000000000000e+00  -6.4509122124136877e-06 2.7922320718454203e-04 0.0000000000000000e+00  -6.4509122004407957e-06 2.7922320718673055e-04 0.0000000000000000e+00  -6.4509121984185646e-06 2.7922320719969760e-04 0.0000000000000000e+00  -6.4509122116754129e-06 2.7922320716318168e-04 0.0000000000000000e+00  -6.4509122050309392e-06 2.7922320717768830e-04 0.0000000000000000e+00  -6.4509122019815435e-06 2.7922320718182995e-04 0.0000000000000000e+00  -6.4509122184803816e-06 2.7922320718261215e-04 0.0000000000000000e+00  -6.4509122018852469e-06 2.7922320718495246e-04 0.0000000000000000e+00  -6.4509121968778176e-06 2.7922320719681363e-04 0.0000000000000000e+00  -6.4509121995741251e-06 2.7922320717569337e-04 0.0000000000000000e+00  -6.4509122035543897e-06 2.7922320718811833e-04 0.0000000000000000e+00  -6.4509121994778285e-06 2.7922320718256721e-04 0.0000000000000000e+00  -6.4509122058013131e-06 2.7922320718512750e-04 0.0000000000000000e+00  -6.4509121936679270e-06 2.7922320719798457e-04 0.0000000000000000e+00  -6.4509122116754129e-06 2.7922320717296118e-04 0.0000000000000000e+00  -6.4509122117396112e-06 2.7922320717411043e-04 0.0000000000000000e+00  -6.4509122178063043e-06 -3.4166100373796636e-04 0.0000000000000000e+00  6.2422389703214976e-05 8.5883833801747404e-04 0.0000000000000000e+00  6.2422389703275326e-05 8.5883833802103023e-04 0.0000000000000000e+00  6.2422389697843053e-05 8.5883833802402273e-04 0.0000000000000000e+00  6.2422389708647249e-05 8.5883833802623418e-04 0.0000000000000000e+00  6.2422389698024128e-05 8.5883833803391033e-04 0.0000000000000000e+00  6.2422389693135081e-05 8.5883833802653841e-04 0.0000000000000000e+00  6.2422389695549423e-05 8.5883833802298114e-04 0.0000000000000000e+00  6.2422389707500434e-05 8.5883833803404109e-04 0.0000000000000000e+00  6.2422389688185671e-05 8.5883833801959951e-04 0.0000000000000000e+00  6.2422389692833280e-05 8.5883833800958040e-04 0.0000000000000000e+00  6.2422389706051832e-05 8.5883833803568907e-04 0.0000000000000000e+00  6.2422389693497232e-05 8.5883833801357135e-04 0.0000000000000000e+00  6.2422389700559196e-05 8.5883833800524359e-04 0.0000000000000000e+00  6.2422389706051832e-05 8.5883833802679753e-04 0.0000000000000000e+00  6.2422389718968583e-05 8.5883833801409296e-04 0.0000000000000000e+00  6.2422389706595058e-05 8.5883833802367503e-04 0.0000000000000000e+00  6.2422389695307985e-05 8.5883833802007548e-04 0.0000000000000000e+00  6.2422389707500434e-05 8.5883833802307015e-04 0.0000000000000000e+00  6.2422389694402608e-05 8.5883833802311124e-04 0.0000000000000000e+00  6.2422389696816950e-05 8.5883833801942496e-04 0.0000000000000000e+00  6.2422389694764759e-05 8.5883833801118730e-04 0.0000000000000000e+00  6.2422389703456401e-05 8.5883833801482794e-04 0.0000000000000000e+00  6.2422389696696238e-05 8.5883833801886117e-04 0.0000000000000000e+00  6.2422389694161170e-05 8.5883833800082232e-04 0.0000000000000000e+00  6.2422389714019173e-05 8.5883833802848889e-04 0.0000000000000000e+00  6.2422389704784291e-05 8.5883833801686624e-04 0.0000000000000000e+00  6.2422389712268769e-05 8.5883833804453508e-04 0.0000000000000000e+00  6.2422389690539650e-05 8.5883833801716982e-04 0.0000000000000000e+00  6.2422389692229691e-05 8.5883833802107761e-04 0.0000000000000000e+00  6.2422389689392835e-05 8.5883833800975387e-04 0.0000000000000000e+00  6.2422389696515162e-05 8.5883833802059589e-04 0.0000000000000000e+00  6.2422389696756601e-05 8.5883833801725655e-04 0.0000000000000000e+00  6.2422389701102422e-05 8.5883833802840215e-04 0.0000000000000000e+00  6.2422389687099205e-05 8.5883833800736863e-04 0.0000000000000000e+00  6.2422389688608184e-05 8.5883833802498073e-04 0.0000000000000000e+00  6.2422389695549423e-05 8.5883833802419545e-04 0.0000000000000000e+00  6.2422389700076319e-05 8.5883833802801184e-04 0.0000000000000000e+00  6.2422389692048615e-05 8.5883833801734329e-04 0.0000000000000000e+00  6.2422389711121954e-05 8.5883833801677950e-04 0.0000000000000000e+00  6.2422389708043660e-05 8.5883833802376176e-04 0.0000000000000000e+00  6.2422389693859382e-05 8.5883833802554452e-04 0.0000000000000000e+00  6.2422389693436869e-05 8.5883833802189694e-04 0.0000000000000000e+00  6.2422389703214976e-05 8.5883833803317264e-04 0.0000000000000000e+00  6.2422389683900199e-05 8.5883833800307519e-04 0.0000000000000000e+00  6.2422389705448243e-05 8.5883833802402197e-04 0.0000000000000000e+00  6.2422389695911574e-05 8.5883833801235596e-04 0.0000000000000000e+00  6.2422389705327531e-05 8.5883833802185823e-04 0.0000000000000000e+00  6.2422389692652204e-05 8.5883833801179217e-04 0.0000000000000000e+00  6.2422389688849609e-05 8.5883833801261617e-04 0.0000000000000000e+00  6.2422389695126909e-05 8.5883833802306788e-04 0.0000000000000000e+00  6.2422389703214976e-05 9.1748950503836146e-04 0.0000000000000000e+00  -3.2664655001922673e-05 -2.3747771791156336e-04 0.0000000000000000e+00  -3.2664654995326183e-05 -2.3747771793047184e-04 0.0000000000000000e+00  -3.2664654997056407e-05 -2.3747771791494610e-04 0.0000000000000000e+00  -3.2664655002787785e-05 -2.3747771793558925e-04 0.0000000000000000e+00  -3.2664654986675050e-05 -2.3747771791806854e-04 0.0000000000000000e+00  -3.2664654976509963e-05 -2.3747771792466063e-04 0.0000000000000000e+00  -3.2664654999976164e-05 -2.3747771791624689e-04 0.0000000000000000e+00  -3.2664654983106452e-05 -2.3747771790818076e-04 0.0000000000000000e+00  -3.2664654994893621e-05 -2.3747771791069610e-04 0.0000000000000000e+00  -3.2664655000084306e-05 -2.3747771790531814e-04 0.0000000000000000e+00  -3.2664654988405267e-05 -2.3747771793515571e-04 0.0000000000000000e+00  -3.2664654984404120e-05 -2.3747771792604841e-04 0.0000000000000000e+00  -3.2664655005274985e-05 -2.3747771793298698e-04 0.0000000000000000e+00  -3.2664654977375075e-05 -2.3747771790514466e-04 0.0000000000000000e+00  -3.2664655008194742e-05 -2.3747771793767138e-04 0.0000000000000000e+00  -3.2664654984187849e-05 -2.3747771792925732e-04 0.0000000000000000e+00  -3.2664654993163397e-05 -2.3747771792379294e-04 0.0000000000000000e+00  -3.2664654987864575e-05 -2.3747771791919657e-04 0.0000000000000000e+00  -3.2664655001598252e-05 -2.3747771793168593e-04 0.0000000000000000e+00  -3.2664655002787785e-05 -2.3747771793593601e-04 0.0000000000000000e+00  -3.2664654987215741e-05 -2.3747771790150239e-04 0.0000000000000000e+00  -3.2664654998678496e-05 -2.3747771792665523e-04 0.0000000000000000e+00  -3.2664655001922673e-05 -2.3747771792032349e-04 0.0000000000000000e+00  -3.2664654992622698e-05 -2.3747771792145171e-04 0.0000000000000000e+00  -3.2664654978564608e-05 -2.3747771792179801e-04 0.0000000000000000e+00  -3.2664654987972718e-05 -2.3747771793107878e-04 0.0000000000000000e+00  -3.2664654988297131e-05 -2.3747771791008863e-04 0.0000000000000000e+00  -3.2664655010033108e-05 -2.3747771791702752e-04 0.0000000000000000e+00  -3.2664654990351776e-05 -2.3747771790618685e-04 0.0000000000000000e+00  -3.2664655000841276e-05 -2.3747771793940545e-04 0.0000000000000000e+00  -3.2664654988188996e-05 -2.3747771791884898e-04 0.0000000000000000e+00  -3.2664654995001763e-05 -2.3747771792786954e-04 0.0000000000000000e+00  -3.2664654991865729e-05 -2.3747771791303766e-04 0.0000000000000000e+00  -3.2664655000949418e-05 -2.3747771791711426e-04 0.0000000000000000e+00  -3.2664654985918073e-05 -2.3747771792015138e-04 0.0000000000000000e+00  -3.2664654994028509e-05 -2.3747771791572648e-04 0.0000000000000000e+00  -3.2664655003977317e-05 -2.3747771793628295e-04 0.0000000000000000e+00  -3.2664654992082007e-05 -2.3747771791798162e-04 0.0000000000000000e+00  -3.2664654989811084e-05 -2.3747771791086925e-04 0.0000000000000000e+00  -3.2664654993812231e-05 -2.3747771792110412e-04 0.0000000000000000e+00  -3.2664654992298285e-05 -2.3747771792908520e-04 0.0000000000000000e+00  -3.2664654983755286e-05 -2.3747771790739980e-04 0.0000000000000000e+00  -3.2664654984187849e-05 -2.3747771791694078e-04 0.0000000000000000e+00  -3.2664654988297131e-05 -2.3747771791321113e-04 0.0000000000000000e+00  -3.2664654982782039e-05 -2.3747771790219563e-04 0.0000000000000000e+00  -3.2664654991541308e-05 -2.3747771793359413e-04 0.0000000000000000e+00  -3.2664654968723941e-05 -2.3747771792821784e-04 0.0000000000000000e+00  -3.2664654984512263e-05 -2.3747771790410383e-04 0.0000000000000000e+00  -3.2664654994785485e-05 -2.3747771792804301e-04 0.0000000000000000e+00  -3.2664654978997164e-05 -2.3747771790089459e-04 0.0000000000000000e+00  -3.2664655001922673e-05 5.2595844966698549e-04 0.0000000000000000e+00  1.3190042882542844e-05 1.5799897316514860e-04 0.0000000000000000e+00  1.3190042897043796e-05 1.5799897317720493e-04 0.0000000000000000e+00  1.3190042895186969e-05 1.5799897317061304e-04 0.0000000000000000e+00  1.3190042889704899e-05 1.5799897317260789e-04 0.0000000000000000e+00  1.3190042893949081e-05 1.5799897316644962e-04 0.0000000000000000e+00  1.3190042880420754e-05 1.5799897317503661e-04 0.0000000000000000e+00  1.3190042883073366e-05 1.5799897318206205e-04 0.0000000000000000e+00  1.3190042876707096e-05 1.5799897318587863e-04 0.0000000000000000e+00  1.3190042863090346e-05 1.5799897318735315e-04 0.0000000000000000e+00  1.3190042870871345e-05 1.5799897315838307e-04 0.0000000000000000e+00  1.3190042872905015e-05 1.5799897316827119e-04 0.0000000000000000e+00  1.3190042868395573e-05 1.5799897318639905e-04 0.0000000000000000e+00  1.3190042865654540e-05 1.5799897315621467e-04 0.0000000000000000e+00  1.3190042881393378e-05 1.5799897316393419e-04 0.0000000000000000e+00  1.3190042864328232e-05 1.5799897316766428e-04 0.0000000000000000e+00  1.3190042881393378e-05 1.5799897314493897e-04 0.0000000000000000e+00  1.3190042899431148e-05 1.5799897316957204e-04 0.0000000000000000e+00  1.3190042884930196e-05 1.5799897317850630e-04 0.0000000000000000e+00  1.3190042877237618e-05 1.5799897317234760e-04 0.0000000000000000e+00  1.3190042889351219e-05 1.5799897317616399e-04 0.0000000000000000e+00  1.3190042891031207e-05 1.5799897319212388e-04 0.0000000000000000e+00  1.3190042867334529e-05 1.5799897315604120e-04 0.0000000000000000e+00  1.3190042887759651e-05 1.5799897317850587e-04 0.0000000000000000e+00  1.3190042888997537e-05 1.5799897317677158e-04 0.0000000000000000e+00  1.3190042885549139e-05 1.5799897319177650e-04 0.0000000000000000e+00  1.3190042886344923e-05 1.5799897319030199e-04 0.0000000000000000e+00  1.3190042876353414e-05 1.5799897317581705e-04 0.0000000000000000e+00  1.3190042903586909e-05 1.5799897316133210e-04 0.0000000000000000e+00  1.3190042912163691e-05 1.5799897317208826e-04 0.0000000000000000e+00  1.3190042896601694e-05 1.5799897317772524e-04 0.0000000000000000e+00  1.3190042901995340e-05 1.5799897317191392e-04 0.0000000000000000e+00  1.3190042887671229e-05 1.5799897317148024e-04 0.0000000000000000e+00  1.3190042887582809e-05 1.5799897316809753e-04 0.0000000000000000e+00  1.3190042896690116e-05 1.5799897316705669e-04 0.0000000000000000e+00  1.3190042892445933e-05 1.5799897317607812e-04 0.0000000000000000e+00  1.3190042905178477e-05 1.5799897317998038e-04 0.0000000000000000e+00  1.3190042885283878e-05 1.5799897318397025e-04 0.0000000000000000e+00  1.3190042891826991e-05 1.5799897316636280e-04 0.0000000000000000e+00  1.3190042896778536e-05 1.5799897318162837e-04 0.0000000000000000e+00  1.3190042890942785e-05 1.5799897319073567e-04 0.0000000000000000e+00  1.3190042878387084e-05 1.5799897316376158e-04 0.0000000000000000e+00  1.3190042903763750e-05 1.5799897317599052e-04 0.0000000000000000e+00  1.3190042889881741e-05 1.5799897316376072e-04 0.0000000000000000e+00  1.3190042901199558e-05 1.5799897317148024e-04 0.0000000000000000e+00  1.3190042893506979e-05 1.5799897317520989e-04 0.0000000000000000e+00  1.3190042897662740e-05 1.5799897318258247e-04 0.0000000000000000e+00  1.3190042897928002e-05 1.5799897318319049e-04 0.0000000000000000e+00  1.3190042890500683e-05 1.5799897316271988e-04 0.0000000000000000e+00  1.3190042892799615e-05 1.5799897317677114e-04 0.0000000000000000e+00  1.3190042898370104e-05 1.5799897318822032e-04 0.0000000000000000e+00  1.3190042882542844e-05 -8.4486763157377604e-04 0.0000000000000000e+00  -1.5997772519629532e-04 -3.9829925575132069e-04 0.0000000000000000e+00  -1.5997772518866577e-04 -3.9829925571523844e-04 0.0000000000000000e+00  -1.5997772520925512e-04 -3.9829925577179054e-04 0.0000000000000000e+00  -1.5997772519598177e-04 -3.9829925571489139e-04 0.0000000000000000e+00  -1.5997772523224828e-04 -3.9829925575739211e-04 0.0000000000000000e+00  -1.5997772523632434e-04 -3.9829925578011732e-04 0.0000000000000000e+00  -1.5997772523183021e-04 -3.9829925576970833e-04 0.0000000000000000e+00  -1.5997772521719820e-04 -3.9829925575687202e-04 0.0000000000000000e+00  -1.5997772520915060e-04 -3.9829925578376024e-04 0.0000000000000000e+00  -1.5997772519744496e-04 -3.9829925577820847e-04 0.0000000000000000e+00  -1.5997772519368245e-04 -3.9829925576641300e-04 0.0000000000000000e+00  -1.5997772520423841e-04 -3.9829925577543356e-04 0.0000000000000000e+00  -1.5997772518563483e-04 -3.9829925577231041e-04 0.0000000000000000e+00  -1.5997772518720255e-04 -3.9829925576901444e-04 0.0000000000000000e+00  -1.5997772519765399e-04 -3.9829925574976020e-04 0.0000000000000000e+00  -1.5997772519984880e-04 -3.9829925577473902e-04 0.0000000000000000e+00  -1.5997772519995331e-04 -3.9829925573900372e-04 0.0000000000000000e+00  -1.5997772520831446e-04 -3.9829925575062756e-04 0.0000000000000000e+00  -1.5997772520915057e-04 -3.9829925576693277e-04 0.0000000000000000e+00  -1.5997772521981105e-04 -3.9829925571888093e-04 0.0000000000000000e+00  -1.5997772522555935e-04 -3.9829925578428120e-04 0.0000000000000000e+00  -1.5997772521960201e-04 -3.9829925577248388e-04 0.0000000000000000e+00  -1.5997772522252841e-04 -3.9829925576814708e-04 0.0000000000000000e+00  -1.5997772521583951e-04 -3.9829925576329104e-04 0.0000000000000000e+00  -1.5997772521416726e-04 -3.9829925575270804e-04 0.000