<?xml version="1.0"?>
<VTKFile type="UnstructuredGrid"  version="0.1"  >
<UnstructuredGrid>
<Piece  NumberOfPoints="2601" NumberOfCells="5000">
<Points>
<DataArray  type="Float64"  NumberOfComponents="3"  format="ascii">0 0 0  0.02 0 0  0.04 0 0  0.06 0 0  0.08 0 0  0.1 0 0  0.12 0 0  0.14 0 0  0.16 0 0  0.18 0 0  0.2 0 0  0.22 0 0  0.24 0 0  0.26 0 0  0.28 0 0  0.3 0 0  0.32 0 0  0.34 0 0  0.36 0 0  0.38 0 0  0.4 0 0  0.42 0 0  0.44 0 0  0.46 0 0  0.48 0 0  0.5 0 0  0.52 0 0  0.54 0 0  0.5600000000000001 0 0  0.58 0 0  0.6 0 0  0.62 0 0  0.64 0 0  0.66 0 0  0.68 0 0  0.7 0 0  0.72 0 0  0.74 0 0  0.76 0 0  0.78 0 0  0.8 0 0  0.82 0 0  0.84 0 0  0.86 0 0  0.88 0 0  0.9 0 0  0.92 0 0  0.9399999999999999 0 0  0.96 0 0  0.98 0 0  1 0 0  0 0.01313563088723984 0  0.02 0.01313563088723984 0  0.04 0.01313563088723984 0  0.06 0.01313563088723984 0  0.08 0.01313563088723984 0  0.1 0.01313563088723984 0  0.12 0.01313563088723984 0  0.14 0.01313563088723984 0  0.16 0.01313563088723984 0  0.18 0.01313563088723984 0  0.2 0.01313563088723984 0  0.22 0.01313563088723984 0  0.24 0.01313563088723984 0  0.26 0.01313563088723984 0  0.28 0.01313563088723984 0  0.3 0.01313563088723984 0  0.32 0.01313563088723984 0  0.34 0.01313563088723984 0  0.36 0.01313563088723984 0  0.38 0.01313563088723984 0  0.4 0.01313563088723984 0  0.42 0.01313563088723984 0  0.44 0.01313563088723984 0  0.46 0.01313563088723984 0  0.48 0.01313563088723984 0  0.5 0.01313563088723984 0  0.52 0.01313563088723984 0  0.54 0.01313563088723984 0  0.5600000000000001 0.01313563088723984 0  0.58 0.01313563088723984 0  0.6 0.01313563088723984 0  0.62 0.01313563088723984 0  0.64 0.01313563088723984 0  0.66 0.01313563088723984 0  0.68 0.01313563088723984 0  0.7 0.01313563088723984 0  0.72 0.01313563088723984 0  0.74 0.01313563088723984 0  0.76 0.01313563088723984 0  0.78 0.01313563088723984 0  0.8 0.01313563088723984 0  0.82 0.01313563088723984 0  0.84 0.01313563088723984 0  0.86 0.01313563088723984 0  0.88 0.01313563088723984 0  0.9 0.01313563088723984 0  0.92 0.01313563088723984 0  0.9399999999999999 0.01313563088723984 0  0.96 0.01313563088723984 0  0.98 0.01313563088723984 0  1 0.01313563088723984 0  0 0.02664639863733726 0  0.02 0.02664639863733726 0  0.04 0.02664639863733726 0  0.06 0.02664639863733726 0  0.08 0.02664639863733726 0  0.1 0.02664639863733726 0  0.12 0.02664639863733726 0  0.14 0.02664639863733726 0  0.16 0.02664639863733726 0  0.18 0.02664639863733726 0  0.2 0.02664639863733726 0  0.22 0.02664639863733726 0  0.24 0.02664639863733726 0  0.26 0.02664639863733726 0  0.28 0.02664639863733726 0  0.3 0.02664639863733726 0  0.32 0.02664639863733726 0  0.34 0.02664639863733726 0  0.36 0.02664639863733726 0  0.38 0.02664639863733726 0  0.4 0.02664639863733726 0  0.42 0.02664639863733726 0  0.44 0.02664639863733726 0  0.46 0.02664639863733726 0  0.48 0.02664639863733726 0  0.5 0.02664639863733726 0  0.52 0.02664639863733726 0  0.54 0.02664639863733726 0  0.5600000000000001 0.02664639863733726 0  0.58 0.02664639863733726 0  0.6 0.02664639863733726 0  0.62 0.02664639863733726 0  0.64 0.02664639863733726 0  0.66 0.02664639863733726 0  0.68 0.02664639863733726 0  0.7 0.02664639863733726 0  0.72 0.02664639863733726 0  0.74 0.02664639863733726 0  0.76 0.02664639863733726 0  0.78 0.02664639863733726 0  0.8 0.02664639863733726 0  0.82 0.02664639863733726 0  0.84 0.02664639863733726 0  0.86 0.02664639863733726 0  0.88 0.02664639863733726 0  0.9 0.02664639863733726 0  0.92 0.02664639863733726 0  0.9399999999999999 0.02664639863733726 0  0.96 0.02664639863733726 0  0.98 0.02664639863733726 0  1 0.02664639863733726 0  0 0.04101652939099896 0  0.02 0.04101652939099896 0  0.04 0.04101652939099896 0  0.06 0.04101652939099896 0  0.08 0.04101652939099896 0  0.1 0.04101652939099896 0  0.12 0.04101652939099896 0  0.14 0.04101652939099896 0  0.16 0.04101652939099896 0  0.18 0.04101652939099896 0  0.2 0.04101652939099896 0  0.22 0.04101652939099896 0  0.24 0.04101652939099896 0  0.26 0.04101652939099896 0  0.28 0.04101652939099896 0  0.3 0.04101652939099896 0  0.32 0.04101652939099896 0  0.34 0.04101652939099896 0  0.36 0.04101652939099896 0  0.38 0.04101652939099896 0  0.4 0.04101652939099896 0  0.42 0.04101652939099896 0  0.44 0.04101652939099896 0  0.46 0.04101652939099896 0  0.48 0.04101652939099896 0  0.5 0.04101652939099896 0  0.52 0.04101652939099896 0  0.54 0.04101652939099896 0  0.5600000000000001 0.04101652939099896 0  0.58 0.04101652939099896 0  0.6 0.04101652939099896 0  0.62 0.04101652939099896 0  0.64 0.04101652939099896 0  0.66 0.04101652939099896 0  0.68 0.04101652939099896 0  0.7 0.04101652939099896 0  0.72 0.04101652939099896 0  0.74 0.04101652939099896 0  0.76 0.04101652939099896 0  0.78 0.04101652939099896 0  0.8 0.04101652939099896 0  0.82 0.04101652939099896 0  0.84 0.04101652939099896 0  0.86 0.04101652939099896 0  0.88 0.04101652939099896 0  0.9 0.04101652939099896 0  0.92 0.04101652939099896 0  0.9399999999999999 0.04101652939099896 0  0.96 0.04101652939099896 0  0.98 0.04101652939099896 0  1 0.04101652939099896 0  0 0.05705811164099547 0  0.02 0.05705811164099547 0  0.04 0.05705811164099547 0  0.06 0.05705811164099547 0  0.08 0.05705811164099547 0  0.1 0.05705811164099547 0  0.12 0.05705811164099547 0  0.14 0.05705811164099547 0  0.16 0.05705811164099547 0  0.18 0.05705811164099547 0  0.2 0.05705811164099547 0  0.22 0.05705811164099547 0  0.24 0.05705811164099547 0  0.26 0.05705811164099547 0  0.28 0.05705811164099547 0  0.3 0.05705811164099547 0  0.32 0.05705811164099547 0  0.34 0.05705811164099547 0  0.36 0.05705811164099547 0  0.38 0.05705811164099547 0  0.4 0.05705811164099547 0  0.42 0.05705811164099547 0  0.44 0.05705811164099547 0  0.46 0.05705811164099547 0  0.48 0.05705811164099547 0  0.5 0.05705811164099547 0  0.52 0.05705811164099547 0  0.54 0.05705811164099547 0  0.5600000000000001 0.05705811164099547 0  0.58 0.05705811164099547 0  0.6 0.05705811164099547 0  0.62 0.05705811164099547 0  0.64 0.05705811164099547 0  0.66 0.05705811164099547 0  0.68 0.05705811164099547 0  0.7 0.05705811164099547 0  0.72 0.05705811164099547 0  0.74 0.05705811164099547 0  0.76 0.05705811164099547 0  0.78 0.05705811164099547 0  0.8 0.05705811164099547 0  0.82 0.05705811164099547 0  0.84 0.05705811164099547 0  0.86 0.05705811164099547 0  0.88 0.05705811164099547 0  0.9 0.05705811164099547 0  0.92 0.05705811164099547 0  0.9399999999999999 0.05705811164099547 0  0.96 0.05705811164099547 0  0.98 0.05705811164099547 0  1 0.05705811164099547 0  0 0.07667714377545 0  0.02 0.07667714377545 0  0.04 0.07667714377545 0  0.06 0.07667714377545 0  0.08 0.07667714377545 0  0.1 0.07667714377545 0  0.12 0.07667714377545 0  0.14 0.07667714377545 0  0.16 0.07667714377545 0  0.18 0.07667714377545 0  0.2 0.07667714377545 0  0.22 0.07667714377545 0  0.24 0.07667714377545 0  0.26 0.07667714377545 0  0.28 0.07667714377545 0  0.3 0.07667714377545 0  0.32 0.07667714377545 0  0.34 0.07667714377545 0  0.36 0.07667714377545 0  0.38 0.07667714377545 0  0.4 0.07667714377545 0  0.42 0.07667714377545 0  0.44 0.07667714377545 0  0.46 0.07667714377545 0  0.48 0.07667714377545 0  0.5 0.07667714377545 0  0.52 0.07667714377545 0  0.54 0.07667714377545 0  0.5600000000000001 0.07667714377545 0  0.58 0.07667714377545 0  0.6 0.07667714377545 0  0.62 0.07667714377545 0  0.64 0.07667714377545 0  0.66 0.07667714377545 0  0.68 0.07667714377545 0  0.7 0.07667714377545 0  0.72 0.07667714377545 0  0.74 0.07667714377545 0  0.76 0.07667714377545 0  0.78 0.07667714377545 0  0.8 0.07667714377545 0  0.82 0.07667714377545 0  0.84 0.07667714377545 0  0.86 0.07667714377545 0  0.88 0.07667714377545 0  0.9 0.07667714377545 0  0.92 0.07667714377545 0  0.9399999999999999 0.07667714377545 0  0.96 0.07667714377545 0  0.98 0.07667714377545 0  1 0.07667714377545 0  0 0.1098730133816912 0  0.02 0.1098730133816912 0  0.04 0.1098730133816912 0  0.06 0.1098730133816912 0  0.08 0.1098730133816912 0  0.1 0.1098730133816912 0  0.12 0.1098730133816912 0  0.14 0.1098730133816912 0  0.16 0.1098730133816912 0  0.18 0.1098730133816912 0  0.2 0.1098730133816912 0  0.22 0.1098730133816912 0  0.24 0.1098730133816912 0  0.26 0.1098730133816912 0  0.28 0.1098730133816912 0  0.3 0.1098730133816912 0  0.32 0.1098730133816912 0  0.34 0.1098730133816912 0  0.36 0.1098730133816912 0  0.38 0.1098730133816912 0  0.4 0.1098730133816912 0  0.42 0.1098730133816912 0  0.44 0.1098730133816912 0  0.46 0.1098730133816912 0  0.48 0.1098730133816912 0  0.5 0.1098730133816912 0  0.52 0.1098730133816912 0  0.54 0.1098730133816912 0  0.5600000000000001 0.1098730133816912 0  0.58 0.1098730133816912 0  0.6 0.1098730133816912 0  0.62 0.1098730133816912 0  0.64 0.1098730133816912 0  0.66 0.1098730133816912 0  0.68 0.1098730133816912 0  0.7 0.1098730133816912 0  0.72 0.1098730133816912 0  0.74 0.1098730133816912 0  0.76 0.1098730133816912 0  0.78 0.1098730133816912 0  0.8 0.1098730133816912 0  0.82 0.1098730133816912 0  0.84 0.1098730133816912 0  0.86 0.1098730133816912 0  0.88 0.1098730133816912 0  0.9 0.1098730133816912 0  0.92 0.1098730133816912 0  0.9399999999999999 0.1098730133816912 0  0.96 0.1098730133816912 0  0.98 0.1098730133816912 0  1 0.1098730133816912 0  0 0.1603283563168221 0  0.02 0.1603283563168221 0  0.04 0.1603283563168221 0  0.06 0.1603283563168221 0  0.08 0.1603283563168221 0  0.1 0.1603283563168221 0  0.12 0.1603283563168221 0  0.14 0.1603283563168221 0  0.16 0.1603283563168221 0  0.18 0.1603283563168221 0  0.2 0.1603283563168221 0  0.22 0.1603283563168221 0  0.24 0.1603283563168221 0  0.26 0.1603283563168221 0  0.28 0.1603283563168221 0  0.3 0.1603283563168221 0  0.32 0.1603283563168221 0  0.34 0.1603283563168221 0  0.36 0.1603283563168221 0  0.38 0.1603283563168221 0  0.4 0.1603283563168221 0  0.42 0.1603283563168221 0  0.44 0.1603283563168221 0  0.46 0.1603283563168221 0  0.48 0.1603283563168221 0  0.5 0.1603283563168221 0  0.52 0.1603283563168221 0  0.54 0.1603283563168221 0  0.5600000000000001 0.1603283563168221 0  0.58 0.1603283563168221 0 
[...]
<PointData  Vectors="u_paraw"> 
<DataArray  type="Float64"  Name="u_paraw"  NumberOfComponents="3" format="ascii">-1.0156848852009258e-05 -1.3008326951616071e-04 0.0000000000000000e+00  -1.0156848841708388e-05 -1.3008326951667029e-04 0.0000000000000000e+00  -1.0156848851497514e-05 -1.3008326951848091e-04 0.0000000000000000e+00  -1.0156848847453105e-05 -1.3008326951291892e-04 0.0000000000000000e+00  -1.0156848849500072e-05 -1.3008326951897961e-04 0.0000000000000000e+00  -1.0156848844712806e-05 -1.3008326950047236e-04 0.0000000000000000e+00  -1.0156848850424507e-05 -1.3008326952005286e-04 0.0000000000000000e+00  -1.0156848845587720e-05 -1.3008326951850264e-04 0.0000000000000000e+00  -1.0156848852702585e-05 -1.3008326951233353e-04 0.0000000000000000e+00  -1.0156848851761639e-05 -1.3008326952295852e-04 0.0000000000000000e+00  -1.0156848842302667e-05 -1.3008326951931580e-04 0.0000000000000000e+00  -1.0156848852355920e-05 -1.3008326952380439e-04 0.0000000000000000e+00  -1.0156848845224549e-05 -1.3008326952112622e-04 0.0000000000000000e+00  -1.0156848845290579e-05 -1.3008326952006371e-04 0.0000000000000000e+00  -1.0156848847056915e-05 -1.3008326951245301e-04 0.0000000000000000e+00  -1.0156848847816274e-05 -1.3008326952122380e-04 0.0000000000000000e+00  -1.0156848848938804e-05 -1.3008326951139009e-04 0.0000000000000000e+00  -1.0156848845125502e-05 -1.3008326952486713e-04 0.0000000000000000e+00  -1.0156848841576324e-05 -1.3008326951877350e-04 0.0000000000000000e+00  -1.0156848851893702e-05 -1.3008326951948908e-04 0.0000000000000000e+00  -1.0156848845752798e-05 -1.3008326952455271e-04 0.0000000000000000e+00  -1.0156848849219438e-05 -1.3008326950608834e-04 0.0000000000000000e+00  -1.0156848843524244e-05 -1.3008326952175506e-04 0.0000000000000000e+00  -1.0156848848773726e-05 -1.3008326952987614e-04 0.0000000000000000e+00  -1.0156848845175025e-05 -1.3008326952679660e-04 0.0000000000000000e+00  -1.0156848849797211e-05 -1.3008326951686531e-04 0.0000000000000000e+00  -1.0156848852108303e-05 -1.3008326951886024e-04 0.0000000000000000e+00  -1.0156848846891837e-05 -1.3008326952446557e-04 0.0000000000000000e+00  -1.0156848847915320e-05 -1.3008326951708288e-04 0.0000000000000000e+00  -1.0156848838968091e-05 -1.3008326952253569e-04 0.0000000000000000e+00  -1.0156848856037160e-05 -1.3008326952544135e-04 0.0000000000000000e+00  -1.0156848846231524e-05 -1.3008326951926140e-04 0.0000000000000000e+00  -1.0156848847403579e-05 -1.3008326951400301e-04 0.0000000000000000e+00  -1.0156848846016923e-05 -1.3008326951775435e-04 0.0000000000000000e+00  -1.0156848843887416e-05 -1.3008326952702501e-04 0.0000000000000000e+00  -1.0156848849153407e-05 -1.3008326951912045e-04 0.0000000000000000e+00  -1.0156848855030185e-05 -1.3008326952301273e-04 0.0000000000000000e+00  -1.0156848848261984e-05 -1.3008326952238390e-04 0.0000000000000000e+00  -1.0156848846941360e-05 -1.3008326951321155e-04 0.0000000000000000e+00  -1.0156848846660727e-05 -1.3008326953215256e-04 0.0000000000000000e+00  -1.0156848847915320e-05 -1.3008326952777311e-04 0.0000000000000000e+00  -1.0156848850639109e-05 -1.3008326952422704e-04 0.0000000000000000e+00  -1.0156848845752798e-05 -1.3008326951819888e-04 0.0000000000000000e+00  -1.0156848849962289e-05 -1.3008326952115875e-04 0.0000000000000000e+00  -1.0156848839710941e-05 -1.3008326950421267e-04 0.0000000000000000e+00  -1.0156848848228968e-05 -1.3008326951818804e-04 0.0000000000000000e+00  -1.0156848850259428e-05 -1.3008326952229789e-04 0.0000000000000000e+00  -1.0156848840998551e-05 -1.3008326951230082e-04 0.0000000000000000e+00  -1.0156848855393356e-05 -1.3008326952861806e-04 0.0000000000000000e+00  -1.0156848835286850e-05 -1.3008326950588234e-04 0.0000000000000000e+00  -1.0156848852009256e-05 -1.1616037732420447e-16 0.0000000000000000e+00  -4.4650362152147400e-06 -1.0842753547226842e-05 0.0000000000000000e+00  -4.4650362166591912e-06 -1.0842753557158134e-05 0.0000000000000000e+00  -4.4650362154394324e-06 -1.0842753556659404e-05 0.0000000000000000e+00  -4.4650362076072999e-06 -1.0842753535192198e-05 0.0000000000000000e+00  -4.4650362144122686e-06 -1.0842753550501133e-05 0.0000000000000000e+00  -4.4650362140591804e-06 -1.0842753548831470e-05 0.0000000000000000e+00  -4.4650362155999274e-06 -1.0842753543258654e-05 0.0000000000000000e+00  -4.4650362110739822e-06 -1.0842753543670667e-05 0.0000000000000000e+00  -4.4650362101110150e-06 -1.0842753541111950e-05 0.0000000000000000e+00  -4.4650362138023888e-06 -1.0842753546728101e-05 0.0000000000000000e+00  -4.4650362144443669e-06 -1.0842753553276699e-05 0.0000000000000000e+00  -4.4650362119727510e-06 -1.0842753543063514e-05 0.0000000000000000e+00  -4.4650362081529814e-06 -1.0842753542412976e-05 0.0000000000000000e+00  -4.4650362164024005e-06 -1.0842753559131374e-05 0.0000000000000000e+00  -4.4650362196122911e-06 -1.0842753557548469e-05 0.0000000000000000e+00  -4.4650362190987088e-06 -1.0842753558632641e-05 0.0000000000000000e+00  -4.4650362108171906e-06 -1.0842753553688679e-05 0.0000000000000000e+00  -4.4650362149579493e-06 -1.0842753550652943e-05 0.0000000000000000e+00  -4.4650362053603765e-06 -1.0842753547075045e-05 0.0000000000000000e+00  -4.4650362155357299e-06 -1.0842753550305968e-05 0.0000000000000000e+00  -4.4650362170122794e-06 -1.0842753558133938e-05 0.0000000000000000e+00  -4.4650362098863225e-06 -1.0842753552647845e-05 0.0000000000000000e+00  -4.4650362165307963e-06 -1.0842753550132495e-05 0.0000000000000000e+00  -4.4650362106245973e-06 -1.0842753549135060e-05 0.0000000000000000e+00  -4.4650362059381571e-06 -1.0842753549980707e-05 0.0000000000000000e+00  -4.4650362115554653e-06 -1.0842753555445086e-05 0.0000000000000000e+00  -4.4650362140270812e-06 -1.0842753546272736e-05 0.0000000000000000e+00  -4.4650362187777197e-06 -1.0842753550305968e-05 0.0000000000000000e+00  -4.4650362086344655e-06 -1.0842753548311097e-05 0.0000000000000000e+00  -4.4650362100468167e-06 -1.0842753552539424e-05 0.0000000000000000e+00  -4.4650362141233779e-06 -1.0842753553320050e-05 0.0000000000000000e+00  -4.4650362065159369e-06 -1.0842753536666704e-05 0.0000000000000000e+00  -4.4650362195801920e-06 -1.0842753570775705e-05 0.0000000000000000e+00  -4.4650362118122569e-06 -1.0842753547356938e-05 0.0000000000000000e+00  -4.4650362097900259e-06 -1.0842753546164377e-05 0.0000000000000000e+00  -4.4650362104641024e-06 -1.0842753543323706e-05 0.0000000000000000e+00  -4.4650362140270812e-06 -1.0842753550154180e-05 0.0000000000000000e+00  -4.4650362147011585e-06 -1.0842753552777949e-05 0.0000000000000000e+00  -4.4650362160493122e-06 -1.0842753564855961e-05 0.0000000000000000e+00  -4.4650362187777197e-06 -1.0842753553970571e-05 0.0000000000000000e+00  -4.4650362098221242e-06 -1.0842753551216759e-05 0.0000000000000000e+00  -4.4650362110097839e-06 -1.0842753556572656e-05 0.0000000000000000e+00  -4.4650362075110033e-06 -1.0842753547313570e-05 0.0000000000000000e+00  -4.4650362129036199e-06 -1.0842753548788085e-05 0.0000000000000000e+00  -4.4650362101110150e-06 -1.0842753553797099e-05 0.0000000000000000e+00  -4.4650362130320149e-06 -1.0842753553341734e-05 0.0000000000000000e+00  -4.4650362118443561e-06 -1.0842753538228017e-05 0.0000000000000000e+00  -4.4650362133209056e-06 -1.0842753547053361e-05 0.0000000000000000e+00  -4.4650362180073458e-06 -1.0842753549330186e-05 0.0000000000000000e+00  -4.4650362042369152e-06 -1.0842753555488454e-05 0.0000000000000000e+00  -4.4650362152147409e-06 -2.1154300539412670e-04 0.0000000000000000e+00  7.4401947914963829e-05 4.3620453290035138e-04 0.0000000000000000e+00  7.4401947909833344e-05 4.3620453290087180e-04 0.0000000000000000e+00  7.4401947910255858e-05 4.3620453290421120e-04 0.0000000000000000e+00  7.4401947911825173e-05 4.3620453289787929e-04 0.0000000000000000e+00  7.4401947905366797e-05 4.3620453289176439e-04 0.0000000000000000e+00  7.4401947906091098e-05 4.3620453289805309e-04 0.0000000000000000e+00  7.4401947913032350e-05 4.3620453290165205e-04 0.0000000000000000e+00  7.4401947908384728e-05 4.3620453290182611e-04 0.0000000000000000e+00  7.4401947907177564e-05 4.3620453289315250e-04 0.0000000000000000e+00  7.4401947906151461e-05 4.3620453289367232e-04 0.0000000000000000e+00  7.4401947901503852e-05 4.3620453289284892e-04 0.0000000000000000e+00  7.4401947908988317e-05 4.3620453288985652e-04 0.0000000000000000e+00  7.4401947914420603e-05 4.3620453289922343e-04 0.0000000000000000e+00  7.4401947908505454e-05 4.3620453290676948e-04 0.0000000000000000e+00  7.4401947911402672e-05 4.3620453289696949e-04 0.0000000000000000e+00  7.4401947910919796e-05 4.3620453290590212e-04 0.0000000000000000e+00  7.4401947909169392e-05 4.3620453290078468e-04 0.0000000000000000e+00  7.4401947908988317e-05 4.3620453288894639e-04 0.0000000000000000e+00  7.4401947912670200e-05 4.3620453289358558e-04 0.0000000000000000e+00  7.4401947905970386e-05 4.3620453289848618e-04 0.0000000000000000e+00  7.4401947902348866e-05 4.3620453288938007e-04 0.0000000000000000e+00  7.4401947910678358e-05 4.3620453289718513e-04 0.0000000000000000e+00  7.4401947917197096e-05 4.3620453291162671e-04 0.0000000000000000e+00  7.4401947916352069e-05 4.3620453290204355e-04 0.0000000000000000e+00  7.4401947907841502e-05 4.3620453289527694e-04 0.0000000000000000e+00  7.4401947908988317e-05 4.3620453289891986e-04 0.0000000000000000e+00  7.4401947910618008e-05 4.3620453289822597e-04 0.0000000000000000e+00  7.4401947909833344e-05 4.3620453289918006e-04 0.0000000000000000e+00  7.4401947909048680e-05 4.3620453289623347e-04 0.0000000000000000e+00  7.4401947903556044e-05 4.3620453289523357e-04 0.0000000000000000e+00  7.4401947908022577e-05 4.3620453289258812e-04 0.0000000000000000e+00  7.4401947910618008e-05 4.3620453289744534e-04 0.0000000000000000e+00  7.4401947907237913e-05 4.3620453289657798e-04 0.0000000000000000e+00  7.4401947914480953e-05 4.3620453290833073e-04 0.0000000000000000e+00  7.4401947904763208e-05 4.3620453288959816e-04 0.0000000000000000e+00  7.4401947905366797e-05 4.3620453289224117e-04 0.0000000000000000e+00  7.4401947913696289e-05 4.3620453290663938e-04 0.0000000000000000e+00  7.4401947905910023e-05 4.3620453289935354e-04 0.0000000000000000e+00  7.4401947909350467e-05 4.3620453290009079e-04 0.0000000000000000e+00  7.4401947913273789e-05 4.3620453290108826e-04 0.0000000000000000e+00  7.4401947913032350e-05 4.3620453289671052e-04 0.0000000000000000e+00  7.4401947914360240e-05 4.3620453291561657e-04 0.0000000000000000e+00  7.4401947907901865e-05 4.3620453289883312e-04 0.0000000000000000e+00  7.4401947907479351e-05 4.3620453289011613e-04 0.0000000000000000e+00  7.4401947907962228e-05 4.3620453290095816e-04 0.0000000000000000e+00  7.4401947912368398e-05 4.3620453289792239e-04 0.0000000000000000e+00  7.4401947913575576e-05 4.3620453290165449e-04 0.0000000000000000e+00  7.4401947906030749e-05 4.3620453290659601e-04 0.0000000000000000e+00  7.4401947913877377e-05 4.3620453290807052e-04 0.0000000000000000e+00  7.4401947903314606e-05 4.3620453288933551e-04 0.0000000000000000e+00  7.4401947914963829e-05 2.2456051781042158e-04 0.0000000000000000e+00  -1.7236784775038293e-04 -7.1714739859670557e-04 0.0000000000000000e+00  -1.7236784775719570e-04 -7.1714739860902210e-04 0.0000000000000000e+00  -1.7236784775027478e-04 -7.1714739859549137e-04 0.0000000000000000e+00  -1.7236784775665501e-04 -7.1714739860910873e-04 0.0000000000000000e+00  -1.7236784774865270e-04 -7.1714739859887386e-04 0.0000000000000000e+00  -1.7236784775124801e-04 -7.1714739860572656e-04 0.0000000000000000e+00  -1.7236784775243757e-04 -7.1714739859965394e-04 0.0000000000000000e+00  -1.7236784775773636e-04 -7.1714739860355816e-04 0.0000000000000000e+00  -1.7236784775222127e-04 -7.1714739860433878e-04 0.0000000000000000e+00  -1.7236784776238637e-04 -7.1714739861431236e-04 0.0000000000000000e+00  -1.7236784775481661e-04 -7.1714739860191017e-04 0.0000000000000000e+00  -1.7236784775276196e-04 -7.1714739860763476e-04 0.0000000000000000e+00  -1.7236784775870965e-04 -7.1714739861327152e-04 0.0000000000000000e+00  -1.7236784775600617e-04 -7.1714739860659284e-04 0.0000000000000000e+00  -1.7236784774865267e-04 -7.1714739860069673e-04 0.0000000000000000e+00  -1.7236784775697943e-04 -7.1714739860650610e-04 0.0000000000000000e+00  -1.7236784775968289e-04 -7.1714739860390402e-04 0.0000000000000000e+00  -1.7236784775449219e-04 -7.1714739860347229e-04 0.0000000000000000e+00  -1.7236784775427594e-04 -7.1714739859791922e-04 0.0000000000000000e+00  -1.7236784775427594e-04 -7.1714739861092965e-04 0.0000000000000000e+00  -1.7236784775816893e-04 -7.1714739859384457e-04 0.0000000000000000e+00  -1.7236784775578990e-04 -7.1714739860841430e-04 0.0000000000000000e+00  -1.7236784774854455e-04 -7.1714739860312339e-04 0.0000000000000000e+00  -1.7236784775481661e-04 -7.1714739860971729e-04 0.0000000000000000e+00  -1.7236784775492478e-04 -7.1714739860954187e-04 0.0000000000000000e+00  -1.7236784775470849e-04 -7.1714739860442443e-04 0.0000000000000000e+00  -1.7236784775438407e-04 -7.1714739859679165e-04 0.0000000000000000e+00  -1.7236784775795266e-04 -7.1714739860312339e-04 0.0000000000000000e+00  -1.7236784775405967e-04 -7.1714739860980609e-04 0.0000000000000000e+00  -1.7236784775633059e-04 -7.1714739860615916e-04 0.0000000000000000e+00  -1.7236784776152126e-04 -7.1714739861171027e-04 0.0000000000000000e+00  -1.7236784774822013e-04 -7.1714739860390402e-04 0.0000000000000000e+00  -1.7236784775168061e-04 -7.1714739859401609e-04 0.0000000000000000e+00  -1.7236784774908527e-04 -7.1714739860147540e-04 0.0000000000000000e+00  -1.7236784776736077e-04 -7.1714739861067345e-04 0.0000000000000000e+00  -1.7236784775589802e-04 -7.1714739861066944e-04 0.0000000000000000e+00  -1.7236784775157246e-04 -7.1714739860971534e-04 0.0000000000000000e+00  -1.7236784775957476e-04 -7.1714739860676631e-04 0.0000000000000000e+00  -1.7236784775611432e-04 -7.1714739860294992e-04 0.0000000000000000e+00  -1.7236784775503291e-04 -7.1714739860806735e-04 0.0000000000000000e+00  -1.7236784775178873e-04 -7.1714739861015303e-04 0.0000000000000000e+00  -1.7236784774951781e-04 -7.1714739860199582e-04 0.0000000000000000e+00  -1.7236784775925034e-04 -7.1714739861240416e-04 0.0000000000000000e+00  -1.7236784775416779e-04 -7.1714739859835290e-04 0.0000000000000000e+00  -1.7236784775070735e-04 -7.1714739861110312e-04 0.0000000000000000e+00  -1.7236784775157246e-04 -7.1714739860772041e-04 0.0000000000000000e+00  -1.7236784775038293e-04 -7.1714739859410684e-04 0.0000000000000000e+00  -1.7236784774854455e-04 -7.1714739860338360e-04 0.0000000000000000e+00  -1.7236784775005851e-04 -7.1714739859427630e-04 0.0000000000000000e+00  -1.7236784775903407e-04 -7.1714739860798062e-04 0.0000000000000000e+00  -1.7236784775038293e-04 3.4377384676242235e-04 0.0000000000000000e+00  2.7577062790646835e-04 6.7181027799071552e-04 0.0000000000000000e+00  2.7577062790187047e-04 6.7181027798993490e-04 0.0000000000000000e+00  2.7577062790549577e-04 6.7181027797987372e-04 0.0000000000000000e+00  2.7577062789638842e-04 6.7181027798342958e-04 0.0000000000000000e+00  2.7577062789895261e-04 6.7181027799644000e-04 0.0000000000000000e+00  2.7577062789488528e-04 6.7181027798551168e-04 0.0000000000000000e+00  2.7577062789347056e-04 6.7181027799036815e-04 0.0000000000000000e+00  2.7577062788798845e-04 6.7181027798386369e-04 0.0000000000000000e+00  2.7577062789170212e-04 6.7181027798976175e-04 0.0000000000000000e+00  2.7577062789196737e-04 6.7181027798898037e-04 0.0000000000000000e+00  2.7577062790125155e-04 6.7181027799869558e-04 0.0000000000000000e+00  2.7577062788869584e-04 6.7181027798264938e-04 0.0000000000000000e+00  2.7577062788834217e-04 6.7181027797371480e-04 0.0000000000000000e+00  2.7577062788471693e-04 6.7181027796790348e-04 0.0000000000000000e+00  2.7577062790602622e-04 6.7181027799340575e-04 0.0000000000000000e+00  2.7577062789258634e-04 6.7181027797414848e-04 0.0000000000000000e+00  2.7577062789019898e-04 6.7181027796955146e-04 0.0000000000000000e+00  2.7577062789126003e-04 6.7181027797944123e-04 0.0000000000000000e+00  2.7577062789638842e-04 6.7181027798828648e-04 0.0000000000000000e+00  2.7577062789258634e-04 6.7181027798325578e-04 0.0000000000000000e+00  2.7577062788904951e-04 6.7181027798160963e-04 0.0000000000000000e+00  2.7577062789267475e-04 6.7181027798247515e-04 0.0000000000000000e+00  2.7577062788763479e-04 6.7181027797397501e-04 0.0000000000000000e+00  2.7577062789886419e-04 6.7181027798577297e-04 0.0000000000000000e+00  2.7577062789674208e-04 6.7181027798733238e-04 0.0000000000000000e+00  2.7577062788560109e-04 6.7181027796851063e-04 0.0000000000000000e+00  2.7577062790160522e-04 6.7181027799522537e-04 0.0000000000000000e+00  2.7577062790699885e-04 6.7181027799097530e-04 0.0000000000000000e+00  2.7577062789638842e-04 6.7181027797128987e-04 0.0000000000000000e+00  2.7577062789179053e-04 6.7181027797657709e-04 0.0000000000000000e+00  2.7577062788790004e-04 6.7181027797449543e-04 0.0000000000000000e+00  2.7577062790063258e-04 6.7181027798793953e-04 0.0000000000000000e+00  2.7577062789974841e-04 6.7181027798516397e-04 0.0000000000000000e+00  2.7577062789851053e-04 6.7181027798273536e-04 0.0000000000000000e+00  2.7577062789488528e-04 6.7181027798560134e-04 0.0000000000000000e+00  2.7577062789691892e-04 6.7181027798585786e-04 0.0000000000000000e+00  2.7577062789276317e-04 6.7181027797510258e-04 0.0000000000000000e+00  2.7577062789904103e-04 6.7181027798785280e-04 0.0000000000000000e+00  2.7577062789117162e-04 6.7181027797753119e-04 0.0000000000000000e+00  2.7577062789868736e-04 6.7181027798022001e-04 0.0000000000000000e+00  2.7577062790142839e-04 6.7181027799071878e-04 0.0000000000000000e+00  2.7577062790602622e-04 6.7181027798958752e-04 0.0000000000000000e+00  2.7577062789488528e-04 6.7181027797675057e-04 0.0000000000000000e+00  2.7577062790275469e-04 6.7181027799782746e-04 0.0000000000000000e+00  2.7577062789435473e-04 6.7181027798516397e-04 0.0000000000000000e+00  2.7577062790072100e-04 6.7181027798750585e-04 0.0000000000000000e+00  2.7577062789674208e-04 6.7181027798013696e-04 0.0000000000000000e+00  2.7577062790089783e-04 6.7181027798845995e-04 0.0000000000000000e+00  2.7577062789718417e-04 6.7181027798091390e-04 0.0000000000000000e+00  2.7577062789647683e-04 6.7181027798767932e-04 0.0000000000000000e+00  2.7577062790646835e-04 -9.4382717185652776e-04 0.0000000000000000e+00  -3.6801582576678727e-04 -1.4812707886835419e-03 0.0000000000000000e+00  -3.6801582577086333e-04 -1.4812707886849297e-03 0.0000000000000000e+00  -3.6801582578173284e-04 -1.4812707887083487e-03 0.0000000000000000e+00  -3.6801582577713419e-04 -1.4812707886875315e-03 0.0000000000000000e+00  -3.6801582578570438e-04 -1.4812707886937765e-03 0.0000000000000000e+00  -3.6801582577870189e-04 -1.4812707886948185e-03 0.0000000000000000e+00  -3.6801582577849286e-04 -1.4812707886974182e-03 0.0000000000000000e+00  -3.6801582576919111e-04 -1.4812707886797264e-03 0.0000000000000000e+00  -3.6801582577347620e-04 -1.4812707887095636e-03 0.0000000000000000e+00  -3.6801582577462584e-04 -1.4812707887038366e-03 0.0000000000000000e+00  -3.6801582577358072e-04 -1.4812707887041860e-03 0.0000000000000000e+00  -3.6801582576521957e-04 -1.4812707886798998e-03 0.0000000000000000e+00  -3.6801582576710077e-04 -1.4812707886859690e-03 0.0000000000000000e+00  -3.6801582577253555e-04 -1.4812707886837138e-03 0.0000000000000000e+00  -3.6801582577504385e-04 -1.4812707886991570e-03 0.0000000000000000e+00  -3.6801582577232651e-04 -1.4812707886819791e-03 0.0000000000000000e+00  -3.6801582577765672e-04 -1.4812707886920405e-03 0.0000000000000000e+00  -3.6801582576825046e-04 -1.4812707886746974e-03 0.0000000000000000e+00  -3.6801582577702962e-04 -1.4812707886955100e-03 0.0000000000000000e+00  -3.6801582577546192e-04 -1.4812707886738259e-03 0.0000000000000000e+00  -3.6801582577702962e-04 -1.4812707886896160e-03 0.0000000000000000e+00  -3.6801582577995605e-04 -1.4812707886913466e-03 0.0000000000000000e+00  -3.6801582577734317e-04 -1.4812707886937752e-03 0.0000000000000000e+00  -3.6801582577786576e-04 -1.4812707886880548e-03 0.0000000000000000e+00  -3