<?xml version="1.0"?>
<VTKFile type="UnstructuredGrid"  version="0.1"  >
<UnstructuredGrid>
<Piece  NumberOfPoints="2601" NumberOfCells="5000">
<Points>
<DataArray  type="Float64"  NumberOfComponents="3"  format="ascii">0 0 0  0.02 0 0  0.04 0 0  0.06 0 0  0.08 0 0  0.1 0 0  0.12 0 0  0.14 0 0  0.16 0 0  0.18 0 0  0.2 0 0  0.22 0 0  0.24 0 0  0.26 0 0  0.28 0 0  0.3 0 0  0.32 0 0  0.34 0 0  0.36 0 0  0.38 0 0  0.4 0 0  0.42 0 0  0.44 0 0  0.46 0 0  0.48 0 0  0.5 0 0  0.52 0 0  0.54 0 0  0.5600000000000001 0 0  0.58 0 0  0.6 0 0  0.62 0 0  0.64 0 0  0.66 0 0  0.68 0 0  0.7 0 0  0.72 0 0  0.74 0 0  0.76 0 0  0.78 0 0  0.8 0 0  0.82 0 0  0.84 0 0  0.86 0 0  0.88 0 0  0.9 0 0  0.92 0 0  0.9399999999999999 0 0  0.96 0 0  0.98 0 0  1 0 0  0 0.01313563088723984 0  0.02 0.01313563088723984 0  0.04 0.01313563088723984 0  0.06 0.01313563088723984 0  0.08 0.01313563088723984 0  0.1 0.01313563088723984 0  0.12 0.01313563088723984 0  0.14 0.01313563088723984 0  0.16 0.01313563088723984 0  0.18 0.01313563088723984 0  0.2 0.01313563088723984 0  0.22 0.01313563088723984 0  0.24 0.01313563088723984 0  0.26 0.01313563088723984 0  0.28 0.01313563088723984 0  0.3 0.01313563088723984 0  0.32 0.01313563088723984 0  0.34 0.01313563088723984 0  0.36 0.01313563088723984 0  0.38 0.01313563088723984 0  0.4 0.01313563088723984 0  0.42 0.01313563088723984 0  0.44 0.01313563088723984 0  0.46 0.01313563088723984 0  0.48 0.01313563088723984 0  0.5 0.01313563088723984 0  0.52 0.01313563088723984 0  0.54 0.01313563088723984 0  0.5600000000000001 0.01313563088723984 0  0.58 0.01313563088723984 0  0.6 0.01313563088723984 0  0.62 0.01313563088723984 0  0.64 0.01313563088723984 0  0.66 0.01313563088723984 0  0.68 0.01313563088723984 0  0.7 0.01313563088723984 0  0.72 0.01313563088723984 0  0.74 0.01313563088723984 0  0.76 0.01313563088723984 0  0.78 0.01313563088723984 0  0.8 0.01313563088723984 0  0.82 0.01313563088723984 0  0.84 0.01313563088723984 0  0.86 0.01313563088723984 0  0.88 0.01313563088723984 0  0.9 0.01313563088723984 0  0.92 0.01313563088723984 0  0.9399999999999999 0.01313563088723984 0  0.96 0.01313563088723984 0  0.98 0.01313563088723984 0  1 0.01313563088723984 0  0 0.02664639863733726 0  0.02 0.02664639863733726 0  0.04 0.02664639863733726 0  0.06 0.02664639863733726 0  0.08 0.02664639863733726 0  0.1 0.02664639863733726 0  0.12 0.02664639863733726 0  0.14 0.02664639863733726 0  0.16 0.02664639863733726 0  0.18 0.02664639863733726 0  0.2 0.02664639863733726 0  0.22 0.02664639863733726 0  0.24 0.02664639863733726 0  0.26 0.02664639863733726 0  0.28 0.02664639863733726 0  0.3 0.02664639863733726 0  0.32 0.02664639863733726 0  0.34 0.02664639863733726 0  0.36 0.02664639863733726 0  0.38 0.02664639863733726 0  0.4 0.02664639863733726 0  0.42 0.02664639863733726 0  0.44 0.02664639863733726 0  0.46 0.02664639863733726 0  0.48 0.02664639863733726 0  0.5 0.02664639863733726 0  0.52 0.02664639863733726 0  0.54 0.02664639863733726 0  0.5600000000000001 0.02664639863733726 0  0.58 0.02664639863733726 0  0.6 0.02664639863733726 0  0.62 0.02664639863733726 0  0.64 0.02664639863733726 0  0.66 0.02664639863733726 0  0.68 0.02664639863733726 0  0.7 0.02664639863733726 0  0.72 0.02664639863733726 0  0.74 0.02664639863733726 0  0.76 0.02664639863733726 0  0.78 0.02664639863733726 0  0.8 0.02664639863733726 0  0.82 0.02664639863733726 0  0.84 0.02664639863733726 0  0.86 0.02664639863733726 0  0.88 0.02664639863733726 0  0.9 0.02664639863733726 0  0.92 0.02664639863733726 0  0.9399999999999999 0.02664639863733726 0  0.96 0.02664639863733726 0  0.98 0.02664639863733726 0  1 0.02664639863733726 0  0 0.04101652939099896 0  0.02 0.04101652939099896 0  0.04 0.04101652939099896 0  0.06 0.04101652939099896 0  0.08 0.04101652939099896 0  0.1 0.04101652939099896 0  0.12 0.04101652939099896 0  0.14 0.04101652939099896 0  0.16 0.04101652939099896 0  0.18 0.04101652939099896 0  0.2 0.04101652939099896 0  0.22 0.04101652939099896 0  0.24 0.04101652939099896 0  0.26 0.04101652939099896 0  0.28 0.04101652939099896 0  0.3 0.04101652939099896 0  0.32 0.04101652939099896 0  0.34 0.04101652939099896 0  0.36 0.04101652939099896 0  0.38 0.04101652939099896 0  0.4 0.04101652939099896 0  0.42 0.04101652939099896 0  0.44 0.04101652939099896 0  0.46 0.04101652939099896 0  0.48 0.04101652939099896 0  0.5 0.04101652939099896 0  0.52 0.04101652939099896 0  0.54 0.04101652939099896 0  0.5600000000000001 0.04101652939099896 0  0.58 0.04101652939099896 0  0.6 0.04101652939099896 0  0.62 0.04101652939099896 0  0.64 0.04101652939099896 0  0.66 0.04101652939099896 0  0.68 0.04101652939099896 0  0.7 0.04101652939099896 0  0.72 0.04101652939099896 0  0.74 0.04101652939099896 0  0.76 0.04101652939099896 0  0.78 0.04101652939099896 0  0.8 0.04101652939099896 0  0.82 0.04101652939099896 0  0.84 0.04101652939099896 0  0.86 0.04101652939099896 0  0.88 0.04101652939099896 0  0.9 0.04101652939099896 0  0.92 0.04101652939099896 0  0.9399999999999999 0.04101652939099896 0  0.96 0.04101652939099896 0  0.98 0.04101652939099896 0  1 0.04101652939099896 0  0 0.05705811164099547 0  0.02 0.05705811164099547 0  0.04 0.05705811164099547 0  0.06 0.05705811164099547 0  0.08 0.05705811164099547 0  0.1 0.05705811164099547 0  0.12 0.05705811164099547 0  0.14 0.05705811164099547 0  0.16 0.05705811164099547 0  0.18 0.05705811164099547 0  0.2 0.05705811164099547 0  0.22 0.05705811164099547 0  0.24 0.05705811164099547 0  0.26 0.05705811164099547 0  0.28 0.05705811164099547 0  0.3 0.05705811164099547 0  0.32 0.05705811164099547 0  0.34 0.05705811164099547 0  0.36 0.05705811164099547 0  0.38 0.05705811164099547 0  0.4 0.05705811164099547 0  0.42 0.05705811164099547 0  0.44 0.05705811164099547 0  0.46 0.05705811164099547 0  0.48 0.05705811164099547 0  0.5 0.05705811164099547 0  0.52 0.05705811164099547 0  0.54 0.05705811164099547 0  0.5600000000000001 0.05705811164099547 0  0.58 0.05705811164099547 0  0.6 0.05705811164099547 0  0.62 0.05705811164099547 0  0.64 0.05705811164099547 0  0.66 0.05705811164099547 0  0.68 0.05705811164099547 0  0.7 0.05705811164099547 0  0.72 0.05705811164099547 0  0.74 0.05705811164099547 0  0.76 0.05705811164099547 0  0.78 0.05705811164099547 0  0.8 0.05705811164099547 0  0.82 0.05705811164099547 0  0.84 0.05705811164099547 0  0.86 0.05705811164099547 0  0.88 0.05705811164099547 0  0.9 0.05705811164099547 0  0.92 0.05705811164099547 0  0.9399999999999999 0.05705811164099547 0  0.96 0.05705811164099547 0  0.98 0.05705811164099547 0  1 0.05705811164099547 0  0 0.07667714377545 0  0.02 0.07667714377545 0  0.04 0.07667714377545 0  0.06 0.07667714377545 0  0.08 0.07667714377545 0  0.1 0.07667714377545 0  0.12 0.07667714377545 0  0.14 0.07667714377545 0  0.16 0.07667714377545 0  0.18 0.07667714377545 0  0.2 0.07667714377545 0  0.22 0.07667714377545 0  0.24 0.07667714377545 0  0.26 0.07667714377545 0  0.28 0.07667714377545 0  0.3 0.07667714377545 0  0.32 0.07667714377545 0  0.34 0.07667714377545 0  0.36 0.07667714377545 0  0.38 0.07667714377545 0  0.4 0.07667714377545 0  0.42 0.07667714377545 0  0.44 0.07667714377545 0  0.46 0.07667714377545 0  0.48 0.07667714377545 0  0.5 0.07667714377545 0  0.52 0.07667714377545 0  0.54 0.07667714377545 0  0.5600000000000001 0.07667714377545 0  0.58 0.07667714377545 0  0.6 0.07667714377545 0  0.62 0.07667714377545 0  0.64 0.07667714377545 0  0.66 0.07667714377545 0  0.68 0.07667714377545 0  0.7 0.07667714377545 0  0.72 0.07667714377545 0  0.74 0.07667714377545 0  0.76 0.07667714377545 0  0.78 0.07667714377545 0  0.8 0.07667714377545 0  0.82 0.07667714377545 0  0.84 0.07667714377545 0  0.86 0.07667714377545 0  0.88 0.07667714377545 0  0.9 0.07667714377545 0  0.92 0.07667714377545 0  0.9399999999999999 0.07667714377545 0  0.96 0.07667714377545 0  0.98 0.07667714377545 0  1 0.07667714377545 0  0 0.1098730133816912 0  0.02 0.1098730133816912 0  0.04 0.1098730133816912 0  0.06 0.1098730133816912 0  0.08 0.1098730133816912 0  0.1 0.1098730133816912 0  0.12 0.1098730133816912 0  0.14 0.1098730133816912 0  0.16 0.1098730133816912 0  0.18 0.1098730133816912 0  0.2 0.1098730133816912 0  0.22 0.1098730133816912 0  0.24 0.1098730133816912 0  0.26 0.1098730133816912 0  0.28 0.1098730133816912 0  0.3 0.1098730133816912 0  0.32 0.1098730133816912 0  0.34 0.1098730133816912 0  0.36 0.1098730133816912 0  0.38 0.1098730133816912 0  0.4 0.1098730133816912 0  0.42 0.1098730133816912 0  0.44 0.1098730133816912 0  0.46 0.1098730133816912 0  0.48 0.1098730133816912 0  0.5 0.1098730133816912 0  0.52 0.1098730133816912 0  0.54 0.1098730133816912 0  0.5600000000000001 0.1098730133816912 0  0.58 0.1098730133816912 0  0.6 0.1098730133816912 0  0.62 0.1098730133816912 0  0.64 0.1098730133816912 0  0.66 0.1098730133816912 0  0.68 0.1098730133816912 0  0.7 0.1098730133816912 0  0.72 0.1098730133816912 0  0.74 0.1098730133816912 0  0.76 0.1098730133816912 0  0.78 0.1098730133816912 0  0.8 0.1098730133816912 0  0.82 0.1098730133816912 0  0.84 0.1098730133816912 0  0.86 0.1098730133816912 0  0.88 0.1098730133816912 0  0.9 0.1098730133816912 0  0.92 0.1098730133816912 0  0.9399999999999999 0.1098730133816912 0  0.96 0.1098730133816912 0  0.98 0.1098730133816912 0  1 0.1098730133816912 0  0 0.1603283563168221 0  0.02 0.1603283563168221 0  0.04 0.1603283563168221 0  0.06 0.1603283563168221 0  0.08 0.1603283563168221 0  0.1 0.1603283563168221 0  0.12 0.1603283563168221 0  0.14 0.1603283563168221 0  0.16 0.1603283563168221 0  0.18 0.1603283563168221 0  0.2 0.1603283563168221 0  0.22 0.1603283563168221 0  0.24 0.1603283563168221 0  0.26 0.1603283563168221 0  0.28 0.1603283563168221 0  0.3 0.1603283563168221 0  0.32 0.1603283563168221 0  0.34 0.1603283563168221 0  0.36 0.1603283563168221 0  0.38 0.1603283563168221 0  0.4 0.1603283563168221 0  0.42 0.1603283563168221 0  0.44 0.1603283563168221 0  0.46 0.1603283563168221 0  0.48 0.1603283563168221 0  0.5 0.1603283563168221 0  0.52 0.1603283563168221 0  0.54 0.1603283563168221 0  0.5600000000000001 0.1603283563168221 0  0.58 0.1603283563168221 0 
[...]
<PointData  Vectors="u_paraw"> 
<DataArray  type="Float64"  Name="u_paraw"  NumberOfComponents="3" format="ascii">-1.4234010534187095e-05 -2.0346839010532353e-04 0.0000000000000000e+00  -1.4234010535854385e-05 -2.0346839010428270e-04 0.0000000000000000e+00  -1.4234010532635360e-05 -2.0346839010242871e-04 0.0000000000000000e+00  -1.4234010534995978e-05 -2.0346839010537771e-04 0.0000000000000000e+00  -1.4234010533922970e-05 -2.0346839010464046e-04 0.0000000000000000e+00  -1.4234010537158499e-05 -2.0346839010754623e-04 0.0000000000000000e+00  -1.4234010532057586e-05 -2.0346839009995654e-04 0.0000000000000000e+00  -1.4234010546567947e-05 -2.0346839011692457e-04 0.0000000000000000e+00  -1.4234010538677215e-05 -2.0346839010565971e-04 0.0000000000000000e+00  -1.4234010541698144e-05 -2.0346839011084193e-04 0.0000000000000000e+00  -1.4234010534104553e-05 -2.0346839010680897e-04 0.0000000000000000e+00  -1.4234010537703256e-05 -2.0346839010251553e-04 0.0000000000000000e+00  -1.4234010532387741e-05 -2.0346839012287657e-04 0.0000000000000000e+00  -1.4234010534335663e-05 -2.0346839011226223e-04 0.0000000000000000e+00  -1.4234010532651866e-05 -2.0346839009709484e-04 0.0000000000000000e+00  -1.4234010541120371e-05 -2.0346839010879279e-04 0.0000000000000000e+00  -1.4234010530538868e-05 -2.0346839011690262e-04 0.0000000000000000e+00  -1.4234010519940856e-05 -2.0346839010803444e-04 0.0000000000000000e+00  -1.4234010532882976e-05 -2.0346839011000709e-04 0.0000000000000000e+00  -1.4234010532602344e-05 -2.0346839010547513e-04 0.0000000000000000e+00  -1.4234010542143855e-05 -2.0346839011863794e-04 0.0000000000000000e+00  -1.4234010530241727e-05 -2.0346839010603891e-04 0.0000000000000000e+00  -1.4234010530489344e-05 -2.0346839011385601e-04 0.0000000000000000e+00  -1.4234010534484233e-05 -2.0346839010690687e-04 0.0000000000000000e+00  -1.4234010528574440e-05 -2.0346839010389219e-04 0.0000000000000000e+00  -1.4234010539832763e-05 -2.0346839010372956e-04 0.0000000000000000e+00  -1.4234010536498186e-05 -2.0346839009843866e-04 0.0000000000000000e+00  -1.4234010533510273e-05 -2.0346839011144908e-04 0.0000000000000000e+00  -1.4234010533147101e-05 -2.0346839010812172e-04 0.0000000000000000e+00  -1.4234010533048054e-05 -2.0346839011056004e-04 0.0000000000000000e+00  -1.4234010530670931e-05 -2.0346839011167677e-04 0.0000000000000000e+00  -1.4234010529812524e-05 -2.0346839010323083e-04 0.0000000000000000e+00  -1.4234010540790215e-05 -2.0346839011515705e-04 0.0000000000000000e+00  -1.4234010547360321e-05 -2.0346839011685925e-04 0.0000000000000000e+00  -1.4234010533262655e-05 -2.0346839011096233e-04 0.0000000000000000e+00  -1.4234010539486098e-05 -2.0346839009685572e-04 0.0000000000000000e+00  -1.4234010547574923e-05 -2.0346839011238150e-04 0.0000000000000000e+00  -1.4234010517051991e-05 -2.0346839011533053e-04 0.0000000000000000e+00  -1.4234010542639090e-05 -2.0346839010768690e-04 0.0000000000000000e+00  -1.4234010537884841e-05 -2.0346839010931320e-04 0.0000000000000000e+00  -1.4234010537769287e-05 -2.0346839011070212e-04 0.0000000000000000e+00  -1.4234010543530511e-05 -2.0346839011471253e-04 0.0000000000000000e+00  -1.4234010534236616e-05 -2.0346839010065043e-04 0.0000000000000000e+00  -1.4234010530060142e-05 -2.0346839012602076e-04 0.0000000000000000e+00  -1.4234010532668375e-05 -2.0346839010312241e-04 0.0000000000000000e+00  -1.4234010529515383e-05 -2.0346839009569563e-04 0.0000000000000000e+00  -1.4234010542771151e-05 -2.0346839010110693e-04 0.0000000000000000e+00  -1.4234010536547708e-05 -2.0346839011095035e-04 0.0000000000000000e+00  -1.4234010530439821e-05 -2.0346839011703272e-04 0.0000000000000000e+00  -1.4234010526510964e-05 -2.0346839010131179e-04 0.0000000000000000e+00  -1.4234010534187093e-05 -8.3083206919666894e-15 0.0000000000000000e+00  -2.1420037780326331e-06 -3.4807965035791704e-04 0.0000000000000000e+00  -2.1420037789956003e-06 -3.4807965036993000e-04 0.0000000000000000e+00  -2.1420037713881594e-06 -3.4807965036483436e-04 0.0000000000000000e+00  -2.1420037843561182e-06 -3.4807965037073231e-04 0.0000000000000000e+00  -2.1420037815956120e-06 -3.4807965037587143e-04 0.0000000000000000e+00  -2.1420037854153821e-06 -3.4807965038894718e-04 0.0000000000000000e+00  -2.1420037713881598e-06 -3.4807965036819506e-04 0.0000000000000000e+00  -2.1420037946919658e-06 -3.4807965038302744e-04 0.0000000000000000e+00  -2.1420037750153362e-06 -3.4807965036771850e-04 0.0000000000000000e+00  -2.1420037777758424e-06 -3.4807965037383291e-04 0.0000000000000000e+00  -2.1420037758820068e-06 -3.4807965036045435e-04 0.0000000000000000e+00  -2.1420037802795570e-06 -3.4807965037138310e-04 0.0000000000000000e+00  -2.1420037756894135e-06 -3.4807965037808299e-04 0.0000000000000000e+00  -2.1420037725116216e-06 -3.4807965036930095e-04 0.0000000000000000e+00  -2.1420037793165898e-06 -3.4807965036904166e-04 0.0000000000000000e+00  -2.1420037754326223e-06 -3.4807965037016831e-04 0.0000000000000000e+00  -2.1420037800227659e-06 -3.4807965037439670e-04 0.0000000000000000e+00  -2.1420037706177863e-06 -3.4807965037196901e-04 0.0000000000000000e+00  -2.1420037714523577e-06 -3.4807965036760959e-04 0.0000000000000000e+00  -2.1420037707461817e-06 -3.4807965037005989e-04 0.0000000000000000e+00  -2.1420037728968085e-06 -3.4807965036693831e-04 0.0000000000000000e+00  -2.1420037670548075e-06 -3.4807965036071407e-04 0.0000000000000000e+00  -2.1420037874376131e-06 -3.4807965038580250e-04 0.0000000000000000e+00  -2.1420037729289073e-06 -3.4807965037407236e-04 0.0000000000000000e+00  -2.1420037680819726e-06 -3.4807965036073575e-04 0.0000000000000000e+00  -2.1420037763313916e-06 -3.4807965037068873e-04 0.0000000000000000e+00  -2.1420037806326448e-06 -3.4807965034863605e-04 0.0000000000000000e+00  -2.1420037910326907e-06 -3.4807965037910214e-04 0.0000000000000000e+00  -2.1420037688523465e-06 -3.4807965036260248e-04 0.0000000000000000e+00  -2.1420037667338184e-06 -3.4807965035759156e-04 0.0000000000000000e+00  -2.1420037736992812e-06 -3.4807965038048991e-04 0.0000000000000000e+00  -2.1420037705214893e-06 -3.4807965036101764e-04 0.0000000000000000e+00  -2.1420037832005573e-06 -3.4807965038101033e-04 0.0000000000000000e+00  -2.1420037781289302e-06 -3.4807965038478335e-04 0.0000000000000000e+00  -2.1420037764276882e-06 -3.4807965037173146e-04 0.0000000000000000e+00  -2.1420037793807877e-06 -3.4807965036832517e-04 0.0000000000000000e+00  -2.1420037760425013e-06 -3.4807965035657241e-04 0.0000000000000000e+00  -2.1420037843240191e-06 -3.4807965037769267e-04 0.0000000000000000e+00  -2.1420037652572689e-06 -3.4807965036550624e-04 0.0000000000000000e+00  -2.1420037809857330e-06 -3.4807965037936234e-04 0.0000000000000000e+00  -2.1420037751116333e-06 -3.4807965035750673e-04 0.0000000000000000e+00  -2.1420037836820409e-06 -3.4807965038391599e-04 0.0000000000000000e+00  -2.1420037625930597e-06 -3.4807965035863240e-04 0.0000000000000000e+00  -2.1420037806647440e-06 -3.4807965037897203e-04 0.0000000000000000e+00  -2.1420037713239619e-06 -3.4807965037034178e-04 0.0000000000000000e+00  -2.1420037733782921e-06 -3.4807965036340289e-04 0.0000000000000000e+00  -2.1420037789635020e-06 -3.4807965036882580e-04 0.0000000000000000e+00  -2.1420037792202932e-06 -3.4807965036507256e-04 0.0000000000000000e+00  -2.1420037784499193e-06 -3.4807965038337389e-04 0.0000000000000000e+00  -2.1420037665412251e-06 -3.4807965037123083e-04 0.0000000000000000e+00  -2.1420037780326336e-06 -3.5215808089993366e-04 0.0000000000000000e+00  -4.2958138641910470e-05 -3.4369381352941653e-04 0.0000000000000000e+00  -4.2958138666597157e-05 -3.4369381354962605e-04 0.0000000000000000e+00  -4.2958138656819056e-05 -3.4369381354221017e-04 0.0000000000000000e+00  -4.2958138662553131e-05 -3.4369381353930434e-04 0.0000000000000000e+00  -4.2958138660500932e-05 -3.4369381353097767e-04 0.0000000000000000e+00  -4.2958138668528636e-05 -3.4369381354945274e-04 0.0000000000000000e+00  -4.2958138644505887e-05 -3.4369381352421203e-04 0.0000000000000000e+00  -4.2958138661225240e-05 -3.4369381353813367e-04 0.0000000000000000e+00  -4.2958138661768466e-05 -3.4369381354758792e-04 0.0000000000000000e+00  -4.2958138663699945e-05 -3.4369381354966910e-04 0.0000000000000000e+00  -4.2958138654706502e-05 -3.4369381354637361e-04 0.0000000000000000e+00  -4.2958138668106123e-05 -3.4369381355071042e-04 0.0000000000000000e+00  -4.2958138655008296e-05 -3.4369381354676343e-04 0.0000000000000000e+00  -4.2958138650783188e-05 -3.4369381354658996e-04 0.0000000000000000e+00  -4.2958138649213866e-05 -3.4369381354437917e-04 0.0000000000000000e+00  -4.2958138659474837e-05 -3.4369381354515882e-04 0.0000000000000000e+00  -4.2958138655792961e-05 -3.4369381354645986e-04 0.0000000000000000e+00  -4.2958138640401505e-05 -3.4369381352338901e-04 0.0000000000000000e+00  -4.2958138661225240e-05 -3.4369381354290368e-04 0.0000000000000000e+00  -4.2958138652956105e-05 -3.4369381353644183e-04 0.0000000000000000e+00  -4.2958138668347561e-05 -3.4369381355027723e-04 0.0000000000000000e+00  -4.2958138650421037e-05 -3.4369381354979920e-04 0.0000000000000000e+00  -4.2958138656456906e-05 -3.4369381353674541e-04 0.0000000000000000e+00  -4.2958138654042557e-05 -3.4369381353119527e-04 0.0000000000000000e+00  -4.2958138654706502e-05 -3.4369381353791635e-04 0.0000000000000000e+00  -4.2958138660259501e-05 -3.4369381354472513e-04 0.0000000000000000e+00  -4.2958138648730996e-05 -3.4369381352147984e-04 0.0000000000000000e+00  -4.2958138668830431e-05 -3.4369381353253870e-04 0.0000000000000000e+00  -4.2958138661345953e-05 -3.4369381353084930e-04 0.0000000000000000e+00  -4.2958138657120851e-05 -3.4369381354359756e-04 0.0000000000000000e+00  -4.2958138666476438e-05 -3.4369381355248802e-04 0.0000000000000000e+00  -4.2958138657543358e-05 -3.4369381354910531e-04 0.0000000000000000e+00  -4.2958138664786397e-05 -3.4369381353973780e-04 0.0000000000000000e+00  -4.2958138667683616e-05 -3.4369381354346746e-04 0.0000000000000000e+00  -4.2958138669554732e-05 -3.4369381355348744e-04 0.0000000000000000e+00  -4.2958138660983802e-05 -3.4369381353960770e-04 0.0000000000000000e+00  -4.2958138650239962e-05 -3.4369381352360488e-04 0.0000000000000000e+00  -4.2958138659897350e-05 -3.4369381354576597e-04 0.0000000000000000e+00  -4.2958138646558086e-05 -3.4369381354355420e-04 0.0000000000000000e+00  -4.2958138662009898e-05 -3.4369381353162797e-04 0.0000000000000000e+00  -4.2958138663941377e-05 -3.4369381354229847e-04 0.0000000000000000e+00  -4.2958138664062096e-05 -3.4369381353908728e-04 0.0000000000000000e+00  -4.2958138658086590e-05 -3.4369381354776090e-04 0.0000000000000000e+00  -4.2958138663217076e-05 -3.4369381354641649e-04 0.0000000000000000e+00  -4.2958138651084982e-05 -3.4369381355730188e-04 0.0000000000000000e+00  -4.2958138650239962e-05 -3.4369381352690085e-04 0.0000000000000000e+00  -4.2958138673236608e-05 -3.4369381354928074e-04 0.0000000000000000e+00  -4.2958138676314902e-05 -3.4369381354698028e-04 0.0000000000000000e+00  -4.2958138663639582e-05 -3.4369381354203631e-04 0.0000000000000000e+00  -4.2958138648972428e-05 -3.4369381355270486e-04 0.0000000000000000e+00  -4.2958138641910470e-05 -3.4068660163616383e-04 0.0000000000000000e+00  1.1580114294834051e-04 4.0284208014081460e-04 0.0000000000000000e+00  1.1580114292736151e-04 4.0284208013855946e-04 0.0000000000000000e+00  1.1580114293103825e-04 4.0284208012867159e-04 0.0000000000000000e+00  1.1580114292984871e-04 4.0284208011444675e-04 0.0000000000000000e+00  1.1580114294498820e-04 4.0284208013934003e-04 0.0000000000000000e+00  1.1580114294920561e-04 4.0284208014012093e-04 0.0000000000000000e+00  1.1580114294023007e-04 4.0284208014393678e-04 0.0000000000000000e+00  1.1580114292801033e-04 4.0284208014116176e-04 0.0000000000000000e+00  1.1580114293774286e-04 4.0284208012893196e-04 0.0000000000000000e+00  1.1580114293536381e-04 4.0284208014228879e-04 0.0000000000000000e+00  1.1580114293633705e-04 4.0284208012476863e-04 0.0000000000000000e+00  1.1580114294466377e-04 4.0284208013257488e-04 0.0000000000000000e+00  1.1580114293211963e-04 4.0284208013188045e-04 0.0000000000000000e+00  1.1580114292757778e-04 4.0284208011774245e-04 0.0000000000000000e+00  1.1580114294779979e-04 4.0284208013144785e-04 0.0000000000000000e+00  1.1580114294304169e-04 4.0284208013951323e-04 0.0000000000000000e+00  1.1580114294109518e-04 4.0284208013552337e-04 0.0000000000000000e+00  1.1580114294520446e-04 4.0284208013448362e-04 0.0000000000000000e+00  1.1580114293666147e-04 4.0284208013422233e-04 0.0000000000000000e+00  1.1580114292822663e-04 4.0284208012494156e-04 0.0000000000000000e+00  1.1580114293698588e-04 4.0284208013448362e-04 0.0000000000000000e+00  1.1580114293568823e-04 4.0284208013621726e-04 0.0000000000000000e+00  1.1580114293038941e-04 4.0284208011730877e-04 0.0000000000000000e+00  1.1580114294628586e-04 4.0284208011965173e-04 0.0000000000000000e+00  1.1580114293406614e-04 4.0284208013760504e-04 0.0000000000000000e+00  1.1580114293676962e-04 4.0284208013248760e-04 0.0000000000000000e+00  1.1580114294314983e-04 4.0284208014653886e-04 0.0000000000000000e+00  1.1580114292033247e-04 4.0284208013456927e-04 0.0000000000000000e+00  1.1580114294596145e-04 4.0284208014524004e-04 0.0000000000000000e+00  1.1580114293201149e-04 4.0284208012624260e-04 0.0000000000000000e+00  1.1580114292476616e-04 4.0284208013448254e-04 0.0000000000000000e+00  1.1580114293806729e-04 4.0284208012346704e-04 0.0000000000000000e+00  1.1580114293839171e-04 4.0284208012745691e-04 0.0000000000000000e+00  1.1580114294271727e-04 4.0284208014922768e-04 0.0000000000000000e+00  1.1580114293622892e-04 4.0284208013743379e-04 0.0000000000000000e+00  1.1580114294141960e-04 4.0284208013023246e-04 0.0000000000000000e+00  1.1580114293114638e-04 4.0284208013482948e-04 0.0000000000000000e+00  1.1580114292692896e-04 4.0284208011808940e-04 0.0000000000000000e+00  1.1580114293417427e-04 4.0284208012589565e-04 0.0000000000000000e+00  1.1580114293979752e-04 4.0284208013309476e-04 0.0000000000000000e+00  1.1580114294217658e-04 4.0284208014255122e-04 0.0000000000000000e+00  1.1580114292984871e-04 4.0284208013188045e-04 0.0000000000000000e+00  1.1580114293666147e-04 4.0284208012849774e-04 0.0000000000000000e+00  1.1580114294758354e-04 4.0284208014072754e-04 0.0000000000000000e+00  1.1580114294163587e-04 4.0284208012858448e-04 0.0000000000000000e+00  1.1580114296001954e-04 4.0284208013439580e-04 0.0000000000000000e+00  1.1580114293071383e-04 4.0284208013188267e-04 0.0000000000000000e+00  1.1580114295071956e-04 4.0284208014697254e-04 0.0000000000000000e+00  1.1580114294369052e-04 4.0284208014636539e-04 0.0000000000000000e+00  1.1580114293752659e-04 4.0284208013812545e-04 0.0000000000000000e+00  1.1580114294834051e-04 -1.6822054044664253e-04 0.0000000000000000e+00  -2.0621870492331409e-04 -1.0951759244422902e-03 0.0000000000000000e+00  -2.0621870493295192e-04 -1.0951759244631069e-03 0.0000000000000000e+00  -2.0621870493763822e-04 -1.0951759244710003e-03 0.0000000000000000e+00  -2.0621870493472031e-04 -1.0951759244707396e-03 0.0000000000000000e+00  -2.0621870493684242e-04 -1.0951759244599844e-03 0.0000000000000000e+00  -2.0621870493065298e-04 -1.0951759244322294e-03 0.0000000000000000e+00  -2.0621870494904443e-04 -1.0951759244579020e-03 0.0000000000000000e+00  -2.0621870494462341e-04 -1.0951759244436786e-03 0.0000000000000000e+00  -2.0621870495594123e-04 -1.0951759244487960e-03 0.0000000000000000e+00  -2.0621870495841701e-04 -1.0951759244893873e-03 0.0000000000000000e+00  -2.0621870494152869e-04 -1.0951759244627606e-03 0.0000000000000000e+00  -2.0621870495337704e-04 -1.0951759244549543e-03 0.0000000000000000e+00  -2.0621870496266117e-04 -1.0951759244747289e-03 0.0000000000000000e+00  -2.0621870494869074e-04 -1.0951759244626725e-03 0.0000000000000000e+00  -2.0621870494488866e-04 -1.0951759244569508e-03 0.0000000000000000e+00  -2.0621870493878766e-04 -1.0951759244778514e-03 0.0000000000000000e+00  -2.0621870492844248e-04 -1.0951759244587694e-03 0.0000000000000000e+00  -2.0621870493666556e-04 -1.0951759244487976e-03 0.0000000000000000e+00  -2.0621870493958344e-04 -1.0951759244749891e-03 0.0000000000000000e+00  -2.0621870493542767e-04 -1.0951759244529581e-03 0.0000000000000000e+00  -2.0621870494709919e-04 -1.0951759244638029e-03 0.0000000000000000e+00  -2.0621870494886760e-04 -1.0951759244733411e-03 0.0000000000000000e+00  -2.0621870493737294e-04 -1.0951759244603307e-03 0.0000000000000000e+00  -2.0621870494480024e-04 -1.0951759244624151e-03 0.0000000000000000e+00  -2.0621870494692235e-04 -1.0951759244814075e-03 0.0000000000000000e+00  -2.0621870493418981e-04 -1.0951759244680502e-03 0.0000000000000000e+00  -2.0621870494258975e-04 -1.0951759244642338e-03 0.0000000000000000e+00  -2.0621870492508248e-04 -1.0951759244670961e-03 0.0000000000000000e+00  -2.0621870492269515e-04 -1.0951759244620714e-03 0.0000000000000000e+00  -2.0621870493666556e-04 -1.0951759244637134e-03 0.0000000000000000e+00  -2.0621870494082133e-04 -1.0951759244634532e-03 0.0000000000000000e+00  -2.0621870493967186e-04 -1.0951759244605041e-03 0.0000000000000000e+00  -2.0621870493144875e-04 -1.0951759244467998e-03 0.0000000000000000e+00  -2.0621870493489717e-04 -1.0951759244670093e-03 0.0000000000000000e+00  -2.0621870494117502e-04 -1.0951759244725665e-03 0.0000000000000000e+00  -2.0621870492172251e-04 -1.0951759244500958e-03 0.0000000000000000e+00  -2.0621870493861080e-04 -1.0951759244624991e-03 0.0000000000000000e+00  -2.0621870494594971e-04 -1.0951759244658818e-03 0.0000000000000000e+00  -2.0621870493799189e-04 -1.0951759244618919e-03 0.0000000000000000e+00  -2.0621870492791195e-04 -1.0951759244530448e-03 0.0000000000000000e+00  -2.0621870494117502e-04 -1.0951759244482804e-03 0.0000000000000000e+00  -2.0621870493701925e-04 -1.0951759244669226e-03 0.0000000000000000e+00  -2.0621870493896450e-04 -1.0951759244513101e-03 0.0000000000000000e+00  -2.0621870493427822e-04 -1.0951759244628460e-03 0.0000000000000000e+00  -2.0621870493825714e-04 -1.0951759244650144e-03 0.0000000000000000e+00  -2.0621870492189935e-04 -1.0951759244577286e-03 0.0000000000000000e+00  -2.0621870494250133e-04 -1.0951759244669287e-03 0.0000000000000000e+00  -2.0621870493816872e-04 -1.0951759244686573e-03 0.0000000000000000e+00  -2.0621870493657714e-04 -1.0951759244633664e-03 0.0000000000000000e+00  -2.0621870493242139e-04 -1.0951759244614582e-03 0.0000000000000000e+00  -2.0621870492331409e-04 4.1511629582138002e-04 0.0000000000000000e+00  5.9660916980324450e-04 1.8143938839332643e-03 0.0000000000000000e+00  5.9660916980104964e-04 1.8143938839611934e-03 0.0000000000000000e+00  5.9660916978328217e-04 1.8143938839235503e-03 0.0000000000000000e+00  5.9660916979132987e-04 1.8143938839273658e-03 0.0000000000000000e+00  5.9660916977439854e-04 1.8143938839438457e-03 0.0000000000000000e+00  5.9660916977000893e-04 1.8143938839114079e-03 0.0000000000000000e+00  5.9660916977377133e-04 1.8143938839049864e-03 0.0000000000000000e+00  5.9660916978735822e-04 1.8143938839230306e-03 0.0000000000000000e+00  5.9660916977492102e-04 1.8143938838645704e-03 0.0000000000000000e+00  5.9660916980512570e-04 1.8143938839284052e-03 0.0000000000000000e+00  5.9660916979718261e-04 1.8143938839398574e-03 0.0000000000000000e+00  5.9660916980993337e-04 1.8143938839218162e-03 0.0000000000000000e+00  5.9660916981547256e-04 1.8143938839544260e-03 0.0000000000000000e+00  5.9660916980502118e-04 1.8143938839375992e-03 0.0000000000000000e+00  5.9660916979561486e-04 1.8143938839141856e-03 0.0000000000000000e+00  5.9660916980230373e-04 1.8143938839415891e-03 0.0000000000000000e+00  5.9660916978840340e-04 1.8143938839195581e-03 0.0000000000000000e+00  5.9660916979237494e-04 1.8143938839134917e-03 0.0000000000000000e+00  5.9660916978328217e-04 1.8143938839211193e-03 0.0000000000000000e+00  5.9660916978035569e-04 1.8143938839270174e-03 0.0000000000000000e+00  5.9660916978307313e-04 1.8143938839278899e-03 0.0000000000000000e+00  5.9660916978108731e-04 1.8143938839341297e-03 0.0000000000000000e+00  5.9660916978411830e-04 1.8143938839079354e-03 0.0000000000000000e+00  5.9660916979467420