<?xml version="1.0"?>
<VTKFile type="UnstructuredGrid"  version="0.1"  >
<UnstructuredGrid>
<Piece  NumberOfPoints="2601" NumberOfCells="5000">
<Points>
<DataArray  type="Float64"  NumberOfComponents="3"  format="ascii">0 0 0  0.02 0 0  0.04 0 0  0.06 0 0  0.08 0 0  0.1 0 0  0.12 0 0  0.14 0 0  0.16 0 0  0.18 0 0  0.2 0 0  0.22 0 0  0.24 0 0  0.26 0 0  0.28 0 0  0.3 0 0  0.32 0 0  0.34 0 0  0.36 0 0  0.38 0 0  0.4 0 0  0.42 0 0  0.44 0 0  0.46 0 0  0.48 0 0  0.5 0 0  0.52 0 0  0.54 0 0  0.5600000000000001 0 0  0.58 0 0  0.6 0 0  0.62 0 0  0.64 0 0  0.66 0 0  0.68 0 0  0.7 0 0  0.72 0 0  0.74 0 0  0.76 0 0  0.78 0 0  0.8 0 0  0.82 0 0  0.84 0 0  0.86 0 0  0.88 0 0  0.9 0 0  0.92 0 0  0.9399999999999999 0 0  0.96 0 0  0.98 0 0  1 0 0  0 0.01313563088723984 0  0.02 0.01313563088723984 0  0.04 0.01313563088723984 0  0.06 0.01313563088723984 0  0.08 0.01313563088723984 0  0.1 0.01313563088723984 0  0.12 0.01313563088723984 0  0.14 0.01313563088723984 0  0.16 0.01313563088723984 0  0.18 0.01313563088723984 0  0.2 0.01313563088723984 0  0.22 0.01313563088723984 0  0.24 0.01313563088723984 0  0.26 0.01313563088723984 0  0.28 0.01313563088723984 0  0.3 0.01313563088723984 0  0.32 0.01313563088723984 0  0.34 0.01313563088723984 0  0.36 0.01313563088723984 0  0.38 0.01313563088723984 0  0.4 0.01313563088723984 0  0.42 0.01313563088723984 0  0.44 0.01313563088723984 0  0.46 0.01313563088723984 0  0.48 0.01313563088723984 0  0.5 0.01313563088723984 0  0.52 0.01313563088723984 0  0.54 0.01313563088723984 0  0.5600000000000001 0.01313563088723984 0  0.58 0.01313563088723984 0  0.6 0.01313563088723984 0  0.62 0.01313563088723984 0  0.64 0.01313563088723984 0  0.66 0.01313563088723984 0  0.68 0.01313563088723984 0  0.7 0.01313563088723984 0  0.72 0.01313563088723984 0  0.74 0.01313563088723984 0  0.76 0.01313563088723984 0  0.78 0.01313563088723984 0  0.8 0.01313563088723984 0  0.82 0.01313563088723984 0  0.84 0.01313563088723984 0  0.86 0.01313563088723984 0  0.88 0.01313563088723984 0  0.9 0.01313563088723984 0  0.92 0.01313563088723984 0  0.9399999999999999 0.01313563088723984 0  0.96 0.01313563088723984 0  0.98 0.01313563088723984 0  1 0.01313563088723984 0  0 0.02664639863733726 0  0.02 0.02664639863733726 0  0.04 0.02664639863733726 0  0.06 0.02664639863733726 0  0.08 0.02664639863733726 0  0.1 0.02664639863733726 0  0.12 0.02664639863733726 0  0.14 0.02664639863733726 0  0.16 0.02664639863733726 0  0.18 0.02664639863733726 0  0.2 0.02664639863733726 0  0.22 0.02664639863733726 0  0.24 0.02664639863733726 0  0.26 0.02664639863733726 0  0.28 0.02664639863733726 0  0.3 0.02664639863733726 0  0.32 0.02664639863733726 0  0.34 0.02664639863733726 0  0.36 0.02664639863733726 0  0.38 0.02664639863733726 0  0.4 0.02664639863733726 0  0.42 0.02664639863733726 0  0.44 0.02664639863733726 0  0.46 0.02664639863733726 0  0.48 0.02664639863733726 0  0.5 0.02664639863733726 0  0.52 0.02664639863733726 0  0.54 0.02664639863733726 0  0.5600000000000001 0.02664639863733726 0  0.58 0.02664639863733726 0  0.6 0.02664639863733726 0  0.62 0.02664639863733726 0  0.64 0.02664639863733726 0  0.66 0.02664639863733726 0  0.68 0.02664639863733726 0  0.7 0.02664639863733726 0  0.72 0.02664639863733726 0  0.74 0.02664639863733726 0  0.76 0.02664639863733726 0  0.78 0.02664639863733726 0  0.8 0.02664639863733726 0  0.82 0.02664639863733726 0  0.84 0.02664639863733726 0  0.86 0.02664639863733726 0  0.88 0.02664639863733726 0  0.9 0.02664639863733726 0  0.92 0.02664639863733726 0  0.9399999999999999 0.02664639863733726 0  0.96 0.02664639863733726 0  0.98 0.02664639863733726 0  1 0.02664639863733726 0  0 0.04101652939099896 0  0.02 0.04101652939099896 0  0.04 0.04101652939099896 0  0.06 0.04101652939099896 0  0.08 0.04101652939099896 0  0.1 0.04101652939099896 0  0.12 0.04101652939099896 0  0.14 0.04101652939099896 0  0.16 0.04101652939099896 0  0.18 0.04101652939099896 0  0.2 0.04101652939099896 0  0.22 0.04101652939099896 0  0.24 0.04101652939099896 0  0.26 0.04101652939099896 0  0.28 0.04101652939099896 0  0.3 0.04101652939099896 0  0.32 0.04101652939099896 0  0.34 0.04101652939099896 0  0.36 0.04101652939099896 0  0.38 0.04101652939099896 0  0.4 0.04101652939099896 0  0.42 0.04101652939099896 0  0.44 0.04101652939099896 0  0.46 0.04101652939099896 0  0.48 0.04101652939099896 0  0.5 0.04101652939099896 0  0.52 0.04101652939099896 0  0.54 0.04101652939099896 0  0.5600000000000001 0.04101652939099896 0  0.58 0.04101652939099896 0  0.6 0.04101652939099896 0  0.62 0.04101652939099896 0  0.64 0.04101652939099896 0  0.66 0.04101652939099896 0  0.68 0.04101652939099896 0  0.7 0.04101652939099896 0  0.72 0.04101652939099896 0  0.74 0.04101652939099896 0  0.76 0.04101652939099896 0  0.78 0.04101652939099896 0  0.8 0.04101652939099896 0  0.82 0.04101652939099896 0  0.84 0.04101652939099896 0  0.86 0.04101652939099896 0  0.88 0.04101652939099896 0  0.9 0.04101652939099896 0  0.92 0.04101652939099896 0  0.9399999999999999 0.04101652939099896 0  0.96 0.04101652939099896 0  0.98 0.04101652939099896 0  1 0.04101652939099896 0  0 0.05705811164099547 0  0.02 0.05705811164099547 0  0.04 0.05705811164099547 0  0.06 0.05705811164099547 0  0.08 0.05705811164099547 0  0.1 0.05705811164099547 0  0.12 0.05705811164099547 0  0.14 0.05705811164099547 0  0.16 0.05705811164099547 0  0.18 0.05705811164099547 0  0.2 0.05705811164099547 0  0.22 0.05705811164099547 0  0.24 0.05705811164099547 0  0.26 0.05705811164099547 0  0.28 0.05705811164099547 0  0.3 0.05705811164099547 0  0.32 0.05705811164099547 0  0.34 0.05705811164099547 0  0.36 0.05705811164099547 0  0.38 0.05705811164099547 0  0.4 0.05705811164099547 0  0.42 0.05705811164099547 0  0.44 0.05705811164099547 0  0.46 0.05705811164099547 0  0.48 0.05705811164099547 0  0.5 0.05705811164099547 0  0.52 0.05705811164099547 0  0.54 0.05705811164099547 0  0.5600000000000001 0.05705811164099547 0  0.58 0.05705811164099547 0  0.6 0.05705811164099547 0  0.62 0.05705811164099547 0  0.64 0.05705811164099547 0  0.66 0.05705811164099547 0  0.68 0.05705811164099547 0  0.7 0.05705811164099547 0  0.72 0.05705811164099547 0  0.74 0.05705811164099547 0  0.76 0.05705811164099547 0  0.78 0.05705811164099547 0  0.8 0.05705811164099547 0  0.82 0.05705811164099547 0  0.84 0.05705811164099547 0  0.86 0.05705811164099547 0  0.88 0.05705811164099547 0  0.9 0.05705811164099547 0  0.92 0.05705811164099547 0  0.9399999999999999 0.05705811164099547 0  0.96 0.05705811164099547 0  0.98 0.05705811164099547 0  1 0.05705811164099547 0  0 0.07667714377545 0  0.02 0.07667714377545 0  0.04 0.07667714377545 0  0.06 0.07667714377545 0  0.08 0.07667714377545 0  0.1 0.07667714377545 0  0.12 0.07667714377545 0  0.14 0.07667714377545 0  0.16 0.07667714377545 0  0.18 0.07667714377545 0  0.2 0.07667714377545 0  0.22 0.07667714377545 0  0.24 0.07667714377545 0  0.26 0.07667714377545 0  0.28 0.07667714377545 0  0.3 0.07667714377545 0  0.32 0.07667714377545 0  0.34 0.07667714377545 0  0.36 0.07667714377545 0  0.38 0.07667714377545 0  0.4 0.07667714377545 0  0.42 0.07667714377545 0  0.44 0.07667714377545 0  0.46 0.07667714377545 0  0.48 0.07667714377545 0  0.5 0.07667714377545 0  0.52 0.07667714377545 0  0.54 0.07667714377545 0  0.5600000000000001 0.07667714377545 0  0.58 0.07667714377545 0  0.6 0.07667714377545 0  0.62 0.07667714377545 0  0.64 0.07667714377545 0  0.66 0.07667714377545 0  0.68 0.07667714377545 0  0.7 0.07667714377545 0  0.72 0.07667714377545 0  0.74 0.07667714377545 0  0.76 0.07667714377545 0  0.78 0.07667714377545 0  0.8 0.07667714377545 0  0.82 0.07667714377545 0  0.84 0.07667714377545 0  0.86 0.07667714377545 0  0.88 0.07667714377545 0  0.9 0.07667714377545 0  0.92 0.07667714377545 0  0.9399999999999999 0.07667714377545 0  0.96 0.07667714377545 0  0.98 0.07667714377545 0  1 0.07667714377545 0  0 0.1098730133816912 0  0.02 0.1098730133816912 0  0.04 0.1098730133816912 0  0.06 0.1098730133816912 0  0.08 0.1098730133816912 0  0.1 0.1098730133816912 0  0.12 0.1098730133816912 0  0.14 0.1098730133816912 0  0.16 0.1098730133816912 0  0.18 0.1098730133816912 0  0.2 0.1098730133816912 0  0.22 0.1098730133816912 0  0.24 0.1098730133816912 0  0.26 0.1098730133816912 0  0.28 0.1098730133816912 0  0.3 0.1098730133816912 0  0.32 0.1098730133816912 0  0.34 0.1098730133816912 0  0.36 0.1098730133816912 0  0.38 0.1098730133816912 0  0.4 0.1098730133816912 0  0.42 0.1098730133816912 0  0.44 0.1098730133816912 0  0.46 0.1098730133816912 0  0.48 0.1098730133816912 0  0.5 0.1098730133816912 0  0.52 0.1098730133816912 0  0.54 0.1098730133816912 0  0.5600000000000001 0.1098730133816912 0  0.58 0.1098730133816912 0  0.6 0.1098730133816912 0  0.62 0.1098730133816912 0  0.64 0.1098730133816912 0  0.66 0.1098730133816912 0  0.68 0.1098730133816912 0  0.7 0.1098730133816912 0  0.72 0.1098730133816912 0  0.74 0.1098730133816912 0  0.76 0.1098730133816912 0  0.78 0.1098730133816912 0  0.8 0.1098730133816912 0  0.82 0.1098730133816912 0  0.84 0.1098730133816912 0  0.86 0.1098730133816912 0  0.88 0.1098730133816912 0  0.9 0.1098730133816912 0  0.92 0.1098730133816912 0  0.9399999999999999 0.1098730133816912 0  0.96 0.1098730133816912 0  0.98 0.1098730133816912 0  1 0.1098730133816912 0  0 0.1603283563168221 0  0.02 0.1603283563168221 0  0.04 0.1603283563168221 0  0.06 0.1603283563168221 0  0.08 0.1603283563168221 0  0.1 0.1603283563168221 0  0.12 0.1603283563168221 0  0.14 0.1603283563168221 0  0.16 0.1603283563168221 0  0.18 0.1603283563168221 0  0.2 0.1603283563168221 0  0.22 0.1603283563168221 0  0.24 0.1603283563168221 0  0.26 0.1603283563168221 0  0.28 0.1603283563168221 0  0.3 0.1603283563168221 0  0.32 0.1603283563168221 0  0.34 0.1603283563168221 0  0.36 0.1603283563168221 0  0.38 0.1603283563168221 0  0.4 0.1603283563168221 0  0.42 0.1603283563168221 0  0.44 0.1603283563168221 0  0.46 0.1603283563168221 0  0.48 0.1603283563168221 0  0.5 0.1603283563168221 0  0.52 0.1603283563168221 0  0.54 0.1603283563168221 0  0.5600000000000001 0.1603283563168221 0  0.58 0.1603283563168221 0 
[...]
<PointData  Vectors="u_paraw"> 
<DataArray  type="Float64"  Name="u_paraw"  NumberOfComponents="3" format="ascii">5.1716299340614332e-05 6.4670211205659260e-04 0.0000000000000000e+00  5.1716299341934958e-05 6.4670211206659979e-04 0.0000000000000000e+00  5.1716299346540629e-05 6.4670211206344476e-04 0.0000000000000000e+00  5.1716299349594582e-05 6.4670211205513967e-04 0.0000000000000000e+00  5.1716299342529237e-05 6.4670211206631779e-04 0.0000000000000000e+00  5.1716299344262551e-05 6.4670211206064774e-04 0.0000000000000000e+00  5.1716299339937505e-05 6.4670211205907478e-04 0.0000000000000000e+00  5.1716299326978877e-05 6.4670211205366548e-04 0.0000000000000000e+00  5.1716299344873336e-05 6.4670211206586275e-04 0.0000000000000000e+00  5.1716299338237199e-05 6.4670211205813152e-04 0.0000000000000000e+00  5.1716299347993311e-05 6.4670211208105242e-04 0.0000000000000000e+00  5.1716299351129792e-05 6.4670211206160184e-04 0.0000000000000000e+00  5.1716299336635940e-05 6.4670211204507773e-04 0.0000000000000000e+00  5.1716299345781267e-05 6.4670211205444523e-04 0.0000000000000000e+00  5.1716299354035169e-05 6.4670211205931525e-04 0.0000000000000000e+00  5.1716299340581305e-05 6.4670211204152154e-04 0.0000000000000000e+00  5.1716299351641536e-05 6.4670211206472347e-04 0.0000000000000000e+00  5.1716299351872647e-05 6.4670211205827442e-04 0.0000000000000000e+00  5.1716299338451803e-05 6.4670211206352001e-04 0.0000000000000000e+00  5.1716299349578062e-05 6.4670211205631006e-04 0.0000000000000000e+00  5.1716299341357173e-05 6.4670211203990803e-04 0.0000000000000000e+00  5.1716299347580616e-05 6.4670211205829415e-04 0.0000000000000000e+00  5.1716299346276504e-05 6.4670211206624135e-04 0.0000000000000000e+00  5.1716299343453668e-05 6.4670211203214515e-04 0.0000000000000000e+00  5.1716299357782443e-05 6.4670211204930612e-04 0.0000000000000000e+00  5.1716299344642231e-05 6.4670211204969643e-04 0.0000000000000000e+00  5.1716299348703151e-05 6.4670211206787850e-04 0.0000000000000000e+00  5.1716299336289280e-05 6.4670211205126852e-04 0.0000000000000000e+00  5.1716299338187678e-05 6.4670211206255864e-04 0.0000000000000000e+00  5.1716299344080960e-05 6.4670211204709434e-04 0.0000000000000000e+00  5.1716299339178144e-05 6.4670211205329598e-04 0.0000000000000000e+00  5.1716299342413674e-05 6.4670211206369348e-04 0.0000000000000000e+00  5.1716299339755915e-05 6.4670211206173107e-04 0.0000000000000000e+00  5.1716299348587596e-05 6.4670211206503789e-04 0.0000000000000000e+00  5.1716299340779402e-05 6.4670211205812426e-04 0.0000000000000000e+00  5.1716299345451107e-05 6.4670211205487891e-04 0.0000000000000000e+00  5.1716299337626413e-05 6.4670211205017348e-04 0.0000000000000000e+00  5.1716299343272078e-05 6.4670211204745213e-04 0.0000000000000000e+00  5.1716299351707570e-05 6.4670211205393566e-04 0.0000000000000000e+00  5.1716299329488060e-05 6.4670211205184315e-04 0.0000000000000000e+00  5.1716299339590839e-05 6.4670211205857962e-04 0.0000000000000000e+00  5.1716299352598988e-05 6.4670211206456084e-04 0.0000000000000000e+00  5.1716299351955189e-05 6.4670211206534147e-04 0.0000000000000000e+00  5.1716299344493655e-05 6.4670211203614390e-04 0.0000000000000000e+00  5.1716299352252328e-05 6.4670211204904591e-04 0.0000000000000000e+00  5.1716299344691752e-05 6.4670211206265264e-04 0.0000000000000000e+00  5.1716299345698725e-05 6.4670211205559807e-04 0.0000000000000000e+00  5.1716299350799639e-05 6.4670211206203465e-04 0.0000000000000000e+00  5.1716299334688022e-05 6.4670211205855436e-04 0.0000000000000000e+00  5.1716299348818700e-05 6.4670211204955548e-04 0.0000000000000000e+00  5.1716299340614325e-05 -1.3873972364352773e-14 0.0000000000000000e+00  2.6539269550194900e-05 7.1790197903728512e-04 0.0000000000000000e+00  2.6539269563130760e-05 7.1790197905974979e-04 0.0000000000000000e+00  2.6539269548204769e-05 7.1790197906846699e-04 0.0000000000000000e+00  2.6539269547273907e-05 7.1790197903843437e-04 0.0000000000000000e+00  2.6539269557160370e-05 7.1790197906417333e-04 0.0000000000000000e+00  2.6539269541656598e-05 7.1790197904270667e-04 0.0000000000000000e+00  2.6539269553597390e-05 7.1790197905983598e-04 0.0000000000000000e+00  2.6539269542587466e-05 7.1790197903845660e-04 0.0000000000000000e+00  2.6539269558251731e-05 7.1790197905740845e-04 0.0000000000000000e+00  2.6539269551799851e-05 7.1790197905046847e-04 0.0000000000000000e+00  2.6539269559022105e-05 7.1790197905706151e-04 0.0000000000000000e+00  2.6539269547626994e-05 7.1790197905411248e-04 0.0000000000000000e+00  2.6539269555138137e-05 7.1790197905209478e-04 0.0000000000000000e+00  2.6539269551831950e-05 7.1790197905836147e-04 0.0000000000000000e+00  2.6539269550483796e-05 7.1790197903854420e-04 0.0000000000000000e+00  2.6539269548301070e-05 7.1790197904179486e-04 0.0000000000000000e+00  2.6539269560017172e-05 7.1790197903910604e-04 0.0000000000000000e+00  2.6539269551703554e-05 7.1790197904572162e-04 0.0000000000000000e+00  2.6539269555362831e-05 7.1790197905398129e-04 0.0000000000000000e+00  2.6539269559567787e-05 7.1790197904838681e-04 0.0000000000000000e+00  2.6539269541945487e-05 7.1790197904437721e-04 0.0000000000000000e+00  2.6539269569646845e-05 7.1790197904996974e-04 0.0000000000000000e+00  2.6539269555844315e-05 7.1790197905634485e-04 0.0000000000000000e+00  2.6539269544866487e-05 7.1790197904240396e-04 0.0000000000000000e+00  2.6539269570577711e-05 7.1790197904921080e-04 0.0000000000000000e+00  2.6539269559086303e-05 7.1790197903674247e-04 0.0000000000000000e+00  2.6539269565859172e-05 7.1790197906089850e-04 0.0000000000000000e+00  2.6539269542202280e-05 7.1790197904827839e-04 0.0000000000000000e+00  2.6539269563002370e-05 7.1790197905882084e-04 0.0000000000000000e+00  2.6539269547241807e-05 7.1790197904320432e-04 0.0000000000000000e+00  2.6539269556614688e-05 7.1790197904378979e-04 0.0000000000000000e+00  2.6539269555330732e-05 7.1790197904346453e-04 0.0000000000000000e+00  2.6539269547306006e-05 7.1790197906170081e-04 0.0000000000000000e+00  2.6539269557031974e-05 7.1790197904723755e-04 0.0000000000000000e+00  2.6539269557449259e-05 7.1790197905058091e-04 0.0000000000000000e+00  2.6539269551703554e-05 7.1790197905166110e-04 0.0000000000000000e+00  2.6539269549488732e-05 7.1790197904021192e-04 0.0000000000000000e+00  2.6539269556325799e-05 7.1790197906224291e-04 0.0000000000000000e+00  2.6539269558508525e-05 7.1790197904110097e-04 0.0000000000000000e+00  2.6539269552859117e-05 7.1790197905467518e-04 0.0000000000000000e+00  2.6539269562617183e-05 7.1790197905960147e-04 0.0000000000000000e+00  2.6539269557256664e-05 7.1790197905448002e-04 0.0000000000000000e+00  2.6539269558508525e-05 7.1790197904166475e-04 0.0000000000000000e+00  2.6539269550965280e-05 7.1790197905356929e-04 0.0000000000000000e+00  2.6539269560883842e-05 7.1790197904090581e-04 0.0000000000000000e+00  2.6539269558315930e-05 7.1790197905116236e-04 0.0000000000000000e+00  2.6539269558155434e-05 7.1790197904815229e-04 0.0000000000000000e+00  2.6539269571797472e-05 7.1790197905363434e-04 0.0000000000000000e+00  2.6539269554464061e-05 7.1790197905651832e-04 0.0000000000000000e+00  2.6539269541688697e-05 7.1790197905116236e-04 0.0000000000000000e+00  2.6539269550194907e-05 1.0870809255705872e-03 0.0000000000000000e+00  -3.9056639320329600e-05 7.4663142278280289e-05 0.0000000000000000e+00  -3.9056639309042534e-05 7.4663142275027683e-05 0.0000000000000000e+00  -3.9056639317251313e-05 7.4663142269519949e-05 0.0000000000000000e+00  -3.9056639314897320e-05 7.4663142280838980e-05 0.0000000000000000e+00  -3.9056639325399729e-05 7.4663142292071314e-05 0.0000000000000000e+00  -3.9056639335781419e-05 7.4663142264966327e-05 0.0000000000000000e+00  -3.9056639309646123e-05 7.4663142289989619e-05 0.0000000000000000e+00  -3.9056639327874434e-05 7.4663142284178390e-05 0.0000000000000000e+00  -3.9056639320329600e-05 7.4663142281099256e-05 0.0000000000000000e+00  -3.9056639315923423e-05 7.4663142282833884e-05 0.0000000000000000e+00  -3.9056639334634604e-05 7.4663142255121772e-05 0.0000000000000000e+00  -3.9056639323770045e-05 7.4663142265269904e-05 0.0000000000000000e+00  -3.9056639311275800e-05 7.4663142272035231e-05 0.0000000000000000e+00  -3.9056639309766835e-05 7.4663142270040299e-05 0.0000000000000000e+00  -3.9056639318217046e-05 7.4663142277673272e-05 0.0000000000000000e+00  -3.9056639309585760e-05 7.4663142280752216e-05 0.0000000000000000e+00  -3.9056639313207279e-05 7.4663142266570852e-05 0.0000000000000000e+00  -3.9056639318458484e-05 7.4663142278323793e-05 0.0000000000000000e+00  -3.9056639320631395e-05 7.4663142275331205e-05 0.0000000000000000e+00  -3.9056639319001710e-05 7.4663142273466378e-05 0.0000000000000000e+00  -3.9056639318941354e-05 7.4663142284959110e-05 0.0000000000000000e+00  -3.9056639326063674e-05 7.4663142265052969e-05 0.0000000000000000e+00  -3.9056639325460085e-05 7.4663142255425253e-05 0.0000000000000000e+00  -3.9056639310128986e-05 7.4663142283094283e-05 0.0000000000000000e+00  -3.9056639318699915e-05 7.4663142283657878e-05 0.0000000000000000e+00  -3.9056639321114264e-05 7.4663142260499320e-05 0.0000000000000000e+00  -3.9056639307835363e-05 7.4663142264836128e-05 0.0000000000000000e+00  -3.9056639311517239e-05 7.4663142285913019e-05 0.0000000000000000e+00  -3.9056639328296941e-05 7.4663142285609849e-05 0.0000000000000000e+00  -3.9056639339523651e-05 7.4663142253300217e-05 0.0000000000000000e+00  -3.9056639314535170e-05 7.4663142272512280e-05 0.0000000000000000e+00  -3.9056639322985380e-05 7.4663142266831060e-05 0.0000000000000000e+00  -3.9056639315681984e-05 7.4663142277499610e-05 0.0000000000000000e+00  -3.9056639327512284e-05 7.4663142276372039e-05 0.0000000000000000e+00  -3.9056639342903740e-05 7.4663142263448756e-05 0.0000000000000000e+00  -3.9056639335539981e-05 7.4663142262450884e-05 0.0000000000000000e+00  -3.9056639320872826e-05 7.4663142280578744e-05 0.0000000000000000e+00  -3.9056639304334555e-05 7.4663142275331205e-05 0.0000000000000000e+00  -3.9056639322019641e-05 7.4663142269259673e-05 0.0000000000000000e+00  -3.9056639307775000e-05 7.4663142275157733e-05 0.0000000000000000e+00  -3.9056639322562874e-05 7.4663142286477210e-05 0.0000000000000000e+00  -3.9056639326667263e-05 7.4663142277456242e-05 0.0000000000000000e+00  -3.9056639316708080e-05 7.4663142280969057e-05 0.0000000000000000e+00  -3.9056639314776608e-05 7.4663142288731944e-05 0.0000000000000000e+00  -3.9056639322080004e-05 7.4663142275114365e-05 0.0000000000000000e+00  -3.9056639321295340e-05 7.4663142275114365e-05 0.0000000000000000e+00  -3.9056639320752114e-05 7.4663142269867233e-05 0.0000000000000000e+00  -3.9056639318277409e-05 7.4663142283918087e-05 0.0000000000000000e+00  -3.9056639334091371e-05 7.4663142254124211e-05 0.0000000000000000e+00  -3.9056639322864668e-05 7.4663142264532552e-05 0.0000000000000000e+00  -3.9056639320329600e-05 2.3933599960298234e-04 0.0000000000000000e+00  3.1105992428883696e-05 5.1275896033190285e-04 0.0000000000000000e+00  3.1105992417961640e-05 5.1275896032383639e-04 0.0000000000000000e+00  3.1105992413095375e-05 5.1275896032132115e-04 0.0000000000000000e+00  3.1105992417529077e-05 5.1275896032045357e-04 0.0000000000000000e+00  3.1105992426180211e-05 5.1275896031316773e-04 0.0000000000000000e+00  3.1105992441644112e-05 5.1275896034101048e-04 0.0000000000000000e+00  3.1105992433317398e-05 5.1275896034421896e-04 0.0000000000000000e+00  3.1105992418286053e-05 5.1275896033597978e-04 0.0000000000000000e+00  3.1105992427477879e-05 5.1275896034534728e-04 0.0000000000000000e+00  3.1105992406282607e-05 5.1275896031056532e-04 0.0000000000000000e+00  3.1105992417204657e-05 5.1275896030735684e-04 0.0000000000000000e+00  3.1105992447483625e-05 5.1275896034456666e-04 0.0000000000000000e+00  3.1105992415258155e-05 5.1275896030883060e-04 0.0000000000000000e+00  3.1105992407255862e-05 5.1275896029703448e-04 0.0000000000000000e+00  3.1105992426072068e-05 5.1275896031837298e-04 0.0000000000000000e+00  3.1105992428018577e-05 5.1275896032982075e-04 0.0000000000000000e+00  3.1105992415041877e-05 5.1275896030987143e-04 0.0000000000000000e+00  3.1105992429316245e-05 5.1275896032748028e-04 0.0000000000000000e+00  3.1105992417420941e-05 5.1275896033320346e-04 0.0000000000000000e+00  3.1105992417637219e-05 5.1275896032262165e-04 0.0000000000000000e+00  3.1105992426504631e-05 5.1275896032418431e-04 0.0000000000000000e+00  3.1105992408229109e-05 5.1275896032218797e-04 0.0000000000000000e+00  3.1105992417529077e-05 5.1275896032045324e-04 0.0000000000000000e+00  3.1105992422611620e-05 5.1275896031542395e-04 0.0000000000000000e+00  3.1105992425206963e-05 5.1275896033129527e-04 0.0000000000000000e+00  3.1105992429640666e-05 5.1275896032383595e-04 0.0000000000000000e+00  3.1105992425855797e-05 5.1275896034430569e-04 0.0000000000000000e+00  3.1105992410067476e-05 5.1275896031221331e-04 0.0000000000000000e+00  3.1105992410500032e-05 5.1275896031334370e-04 0.0000000000000000e+00  3.1105992420989532e-05 5.1275896032600436e-04 0.0000000000000000e+00  3.1105992416555829e-05 5.1275896031490213e-04 0.0000000000000000e+00  3.1105992420773254e-05 5.1275896032418290e-04 0.0000000000000000e+00  3.1105992420448840e-05 5.1275896032461658e-04 0.0000000000000000e+00  3.1105992424017431e-05 5.1275896031845831e-04 0.0000000000000000e+00  3.1105992420881396e-05 5.1275896033459406e-04 0.0000000000000000e+00  3.1105992420016284e-05 5.1275896033042790e-04 0.0000000000000000e+00  3.1105992416663965e-05 5.1275896035046396e-04 0.0000000000000000e+00  3.1105992425855797e-05 5.1275896032531047e-04 0.0000000000000000e+00  3.1105992412230263e-05 5.1275896032088692e-04 0.0000000000000000e+00  3.1105992429748808e-05 5.1275896032010630e-04 0.0000000000000000e+00  3.1105992423584875e-05 5.1275896034387483e-04 0.0000000000000000e+00  3.1105992410500032e-05 5.1275896029954983e-04 0.0000000000000000e+00  3.1105992434182510e-05 5.1275896033476471e-04 0.0000000000000000e+00  3.1105992429640666e-05 5.1275896032695846e-04 0.0000000000000000e+00  3.1105992428018577e-05 5.1275896032348901e-04 0.0000000000000000e+00  3.1105992426612774e-05 5.1275896031854505e-04 0.0000000000000000e+00  3.1105992432236008e-05 5.1275896033051746e-04 0.0000000000000000e+00  3.1105992436885996e-05 5.1275896032409616e-04 0.0000000000000000e+00  3.1105992412230263e-05 5.1275896032591762e-04 0.0000000000000000e+00  3.1105992414501185e-05 5.1275896032505026e-04 0.0000000000000000e+00  3.1105992428883696e-05 7.7764668909835084e-05 0.0000000000000000e+00  -6.1618853027372959e-05 4.3720874308081291e-06 0.0000000000000000e+00  -6.1618853018177231e-05 4.3720874200528436e-06 0.0000000000000000e+00  -6.1618853027726640e-05 4.3720874281193213e-06 0.0000000000000000e+00  -6.1618853032589761e-05 4.3720873856185961e-06 0.0000000000000000e+00  -6.1618853012960416e-05 4.3720874382674536e-06 0.0000000000000000e+00  -6.1618853034711856e-05 4.3720874372266127e-06 0.0000000000000000e+00  -6.1618853043642321e-05 4.3720874104251350e-06 0.0000000000000000e+00  -6.1618853021448784e-05 4.3720874407827959e-06 0.0000000000000000e+00  -6.1618853066012691e-05 4.3720874375735574e-06 0.0000000000000000e+00  -6.1618853059734836e-05 4.3720874026188794e-06 0.0000000000000000e+00  -6.1618853036480258e-05 4.3720874149354161e-06 0.0000000000000000e+00  -6.1618853057082227e-05 4.3720874166701396e-06 0.0000000000000000e+00  -6.1618853066808469e-05 4.3720873695723972e-06 0.0000000000000000e+00  -6.1618853037894992e-05 4.3720874136343735e-06 0.0000000000000000e+00  -6.1618853038337089e-05 4.3720874269050216e-06 0.0000000000000000e+00  -6.1618853040636018e-05 4.3720873823226147e-06 0.0000000000000000e+00  -6.1618853017027760e-05 4.3720874297673018e-06 0.0000000000000000e+00  -6.1618853026046641e-05 4.3720874405226009e-06 0.0000000000000000e+00  -6.1618853039132867e-05 4.3720874031392964e-06 0.0000000000000000e+00  -6.1618853036214994e-05 4.3720874186650716e-06 0.0000000000000000e+00  -6.1618853033562385e-05 4.3720874208334895e-06 0.0000000000000000e+00  -6.1618853047355971e-05 4.3720874075628413e-06 0.0000000000000000e+00  -6.1618853039398130e-05 4.3720874255172293e-06 0.0000000000000000e+00  -6.1618853039309713e-05 4.3720874092108422e-06 0.0000000000000000e+00  -6.1618853027372959e-05 4.3720874253437569e-06 0.0000000000000000e+00  -6.1618853044614945e-05 4.3720874082567307e-06 0.0000000000000000e+00  -6.1618853036833938e-05 4.3720874028790879e-06 0.0000000000000000e+00  -6.1618853022156144e-05 4.3720874160629863e-06 0.0000000000000000e+00  -6.1618853001377342e-05 4.3720874339306517e-06 0.0000000000000000e+00  -6.1618853014109887e-05 4.3720874128537479e-06 0.0000000000000000e+00  -6.1618853026842432e-05 4.3720874234355611e-06 0.0000000000000000e+00  -6.1618853026842432e-05 4.3720874162364587e-06 0.0000000000000000e+00  -6.1618853034269745e-05 4.3720874133741650e-06 0.0000000000000000e+00  -6.1618853025781391e-05 4.3720874166701396e-06 0.0000000000000000e+00  -6.1618853013225679e-05 4.3720874231753661e-06 0.0000000000000000e+00  -6.1618853022775088e-05 4.3720874203130589e-06 0.0000000000000000e+00  -6.1618853014640414e-05 4.3720874318489700e-06 0.0000000000000000e+00  -6.1618853034800273e-05 4.3720874198793780e-06 0.0000000000000000e+00  -6.1618853034092912e-05 4.3720874192722248e-06 0.0000000000000000e+00  -6.1618853019415119e-05 4.3720874315887615e-06 0.0000000000000000e+00  -6.1618853029848721e-05 4.3720874307214133e-06 0.0000000000000000e+00  -6.1618853026400335e-05 4.3720874228284079e-06 0.0000000000000000e+00  -6.1618853021360367e-05 4.3720874265580634e-06 0.0000000000000000e+00  -6.1618853024985600e-05 4.3720874224814632e-06 0.0000000000000000e+00  -6.1618853017911967e-05 4.3720874393082809e-06 0.0000000000000000e+00  -6.1618853025162447e-05 4.3720873997565857e-06 0.0000000000000000e+00  -6.1618853018442494e-05 4.3720874306346771e-06 0.0000000000000000e+00  -6.1618853034446592e-05 4.3720874104251350e-06 0.0000000000000000e+00  -6.1618853024543503e-05 4.3720874203997950e-06 0.0000000000000000e+00  -6.1618853022598255e-05 4.3720874528391240e-06 0.0000000000000000e+00  -6.1618853027372959e-05 7.9742879450692833e-04 0.0000000000000000e+00  4.3044332029955020e-04 2.0748785406341647e-03 0.0000000000000000e+00  4.3044332030529848e-04 2.0748785406289605e-03 0.0000000000000000e+00  4.3044332030069983e-04 2.0748785406423183e-03 0.0000000000000000e+00  4.3044332028920328e-04 2.0748785406102250e-03 0.0000000000000000e+00  4.3044332027916986e-04 2.0748785406424909e-03 0.0000000000000000e+00  4.3044332026725523e-04 2.0748785406275740e-03 0.0000000000000000e+00  4.3044332027718403e-04 2.0748785406012027e-03 0.0000000000000000e+00  4.3044332028596330e-04 2.0748785406013797e-03 0.0000000000000000e+00  4.3044332029725088e-04 2.0748785406159514e-03 0.0000000000000000e+00  4.3044332031188284e-04 2.0748785406310400e-03 0.0000000000000000e+00  4.3044332029798244e-04 2.0748785406383293e-03 0.0000000000000000e+00  4.3044332031742213e-04 2.0748785406400640e-03 0.0000000000000000e+00  4.3044332031397313e-04 2.0748785406263562e-03 0.0000000000000000e+00  4.3044332031909435e-04 2.0748785406442239e-03 0.0000000000000000e+00  4.3044332030603004e-04 2.0748785406173417e-03 0.0000000000000000e+00  4.3044332030644811e-04 2.0748785406220194e-03 0.0000000000000000e+00  4.3044332030634359e-04 2.0748785406317339e-03 0.0000000000000000e+00  4.3044332028439555e-04 2.0748785406024231e-03 0.0000000000000000e+00  4.3044332028073756e-04 2.0748785406034579e-03 0.0000000000000000e+00  4.3044332029411537e-04 2.0748785406365911e-03 0.0000000000000000e+00  4.3044332027258544e-04 2.0748785406327808e-03 0.0000000000000000e+00  4.3044332027927432e-04 2.0748785406317339e-03 0.0000000000000000e+00  4.3044332029369735e-04 2.0748785406168153e-03 0.0000000000000000e+00  4.3044332028011046e-04 2.0748785406248011e-03 0.0000000000000000e+00  4.3044332028847161e-04 2.0748785406282644e-03 0.0000000000000000e+00  4.3044332028408200e-04 2.0748785406131723e-03 0.0000000000000000e+00  4.3044332029725082e-04 2.0748785406152540e-03 0.0000000000000000e+00  4.3044332029254766e-04 2.0748785406154275e-