<?xml version="1.0"?>
<VTKFile type="UnstructuredGrid"  version="0.1"  >
<UnstructuredGrid>
<Piece  NumberOfPoints="2601" NumberOfCells="5000">
<Points>
<DataArray  type="Float64"  NumberOfComponents="3"  format="ascii">0 0 0  0.02 0 0  0.04 0 0  0.06 0 0  0.08 0 0  0.1 0 0  0.12 0 0  0.14 0 0  0.16 0 0  0.18 0 0  0.2 0 0  0.22 0 0  0.24 0 0  0.26 0 0  0.28 0 0  0.3 0 0  0.32 0 0  0.34 0 0  0.36 0 0  0.38 0 0  0.4 0 0  0.42 0 0  0.44 0 0  0.46 0 0  0.48 0 0  0.5 0 0  0.52 0 0  0.54 0 0  0.5600000000000001 0 0  0.58 0 0  0.6 0 0  0.62 0 0  0.64 0 0  0.66 0 0  0.68 0 0  0.7 0 0  0.72 0 0  0.74 0 0  0.76 0 0  0.78 0 0  0.8 0 0  0.82 0 0  0.84 0 0  0.86 0 0  0.88 0 0  0.9 0 0  0.92 0 0  0.9399999999999999 0 0  0.96 0 0  0.98 0 0  1 0 0  0 0.01313563088723984 0  0.02 0.01313563088723984 0  0.04 0.01313563088723984 0  0.06 0.01313563088723984 0  0.08 0.01313563088723984 0  0.1 0.01313563088723984 0  0.12 0.01313563088723984 0  0.14 0.01313563088723984 0  0.16 0.01313563088723984 0  0.18 0.01313563088723984 0  0.2 0.01313563088723984 0  0.22 0.01313563088723984 0  0.24 0.01313563088723984 0  0.26 0.01313563088723984 0  0.28 0.01313563088723984 0  0.3 0.01313563088723984 0  0.32 0.01313563088723984 0  0.34 0.01313563088723984 0  0.36 0.01313563088723984 0  0.38 0.01313563088723984 0  0.4 0.01313563088723984 0  0.42 0.01313563088723984 0  0.44 0.01313563088723984 0  0.46 0.01313563088723984 0  0.48 0.01313563088723984 0  0.5 0.01313563088723984 0  0.52 0.01313563088723984 0  0.54 0.01313563088723984 0  0.5600000000000001 0.01313563088723984 0  0.58 0.01313563088723984 0  0.6 0.01313563088723984 0  0.62 0.01313563088723984 0  0.64 0.01313563088723984 0  0.66 0.01313563088723984 0  0.68 0.01313563088723984 0  0.7 0.01313563088723984 0  0.72 0.01313563088723984 0  0.74 0.01313563088723984 0  0.76 0.01313563088723984 0  0.78 0.01313563088723984 0  0.8 0.01313563088723984 0  0.82 0.01313563088723984 0  0.84 0.01313563088723984 0  0.86 0.01313563088723984 0  0.88 0.01313563088723984 0  0.9 0.01313563088723984 0  0.92 0.01313563088723984 0  0.9399999999999999 0.01313563088723984 0  0.96 0.01313563088723984 0  0.98 0.01313563088723984 0  1 0.01313563088723984 0  0 0.02664639863733726 0  0.02 0.02664639863733726 0  0.04 0.02664639863733726 0  0.06 0.02664639863733726 0  0.08 0.02664639863733726 0  0.1 0.02664639863733726 0  0.12 0.02664639863733726 0  0.14 0.02664639863733726 0  0.16 0.02664639863733726 0  0.18 0.02664639863733726 0  0.2 0.02664639863733726 0  0.22 0.02664639863733726 0  0.24 0.02664639863733726 0  0.26 0.02664639863733726 0  0.28 0.02664639863733726 0  0.3 0.02664639863733726 0  0.32 0.02664639863733726 0  0.34 0.02664639863733726 0  0.36 0.02664639863733726 0  0.38 0.02664639863733726 0  0.4 0.02664639863733726 0  0.42 0.02664639863733726 0  0.44 0.02664639863733726 0  0.46 0.02664639863733726 0  0.48 0.02664639863733726 0  0.5 0.02664639863733726 0  0.52 0.02664639863733726 0  0.54 0.02664639863733726 0  0.5600000000000001 0.02664639863733726 0  0.58 0.02664639863733726 0  0.6 0.02664639863733726 0  0.62 0.02664639863733726 0  0.64 0.02664639863733726 0  0.66 0.02664639863733726 0  0.68 0.02664639863733726 0  0.7 0.02664639863733726 0  0.72 0.02664639863733726 0  0.74 0.02664639863733726 0  0.76 0.02664639863733726 0  0.78 0.02664639863733726 0  0.8 0.02664639863733726 0  0.82 0.02664639863733726 0  0.84 0.02664639863733726 0  0.86 0.02664639863733726 0  0.88 0.02664639863733726 0  0.9 0.02664639863733726 0  0.92 0.02664639863733726 0  0.9399999999999999 0.02664639863733726 0  0.96 0.02664639863733726 0  0.98 0.02664639863733726 0  1 0.02664639863733726 0  0 0.04101652939099896 0  0.02 0.04101652939099896 0  0.04 0.04101652939099896 0  0.06 0.04101652939099896 0  0.08 0.04101652939099896 0  0.1 0.04101652939099896 0  0.12 0.04101652939099896 0  0.14 0.04101652939099896 0  0.16 0.04101652939099896 0  0.18 0.04101652939099896 0  0.2 0.04101652939099896 0  0.22 0.04101652939099896 0  0.24 0.04101652939099896 0  0.26 0.04101652939099896 0  0.28 0.04101652939099896 0  0.3 0.04101652939099896 0  0.32 0.04101652939099896 0  0.34 0.04101652939099896 0  0.36 0.04101652939099896 0  0.38 0.04101652939099896 0  0.4 0.04101652939099896 0  0.42 0.04101652939099896 0  0.44 0.04101652939099896 0  0.46 0.04101652939099896 0  0.48 0.04101652939099896 0  0.5 0.04101652939099896 0  0.52 0.04101652939099896 0  0.54 0.04101652939099896 0  0.5600000000000001 0.04101652939099896 0  0.58 0.04101652939099896 0  0.6 0.04101652939099896 0  0.62 0.04101652939099896 0  0.64 0.04101652939099896 0  0.66 0.04101652939099896 0  0.68 0.04101652939099896 0  0.7 0.04101652939099896 0  0.72 0.04101652939099896 0  0.74 0.04101652939099896 0  0.76 0.04101652939099896 0  0.78 0.04101652939099896 0  0.8 0.04101652939099896 0  0.82 0.04101652939099896 0  0.84 0.04101652939099896 0  0.86 0.04101652939099896 0  0.88 0.04101652939099896 0  0.9 0.04101652939099896 0  0.92 0.04101652939099896 0  0.9399999999999999 0.04101652939099896 0  0.96 0.04101652939099896 0  0.98 0.04101652939099896 0  1 0.04101652939099896 0  0 0.05705811164099547 0  0.02 0.05705811164099547 0  0.04 0.05705811164099547 0  0.06 0.05705811164099547 0  0.08 0.05705811164099547 0  0.1 0.05705811164099547 0  0.12 0.05705811164099547 0  0.14 0.05705811164099547 0  0.16 0.05705811164099547 0  0.18 0.05705811164099547 0  0.2 0.05705811164099547 0  0.22 0.05705811164099547 0  0.24 0.05705811164099547 0  0.26 0.05705811164099547 0  0.28 0.05705811164099547 0  0.3 0.05705811164099547 0  0.32 0.05705811164099547 0  0.34 0.05705811164099547 0  0.36 0.05705811164099547 0  0.38 0.05705811164099547 0  0.4 0.05705811164099547 0  0.42 0.05705811164099547 0  0.44 0.05705811164099547 0  0.46 0.05705811164099547 0  0.48 0.05705811164099547 0  0.5 0.05705811164099547 0  0.52 0.05705811164099547 0  0.54 0.05705811164099547 0  0.5600000000000001 0.05705811164099547 0  0.58 0.05705811164099547 0  0.6 0.05705811164099547 0  0.62 0.05705811164099547 0  0.64 0.05705811164099547 0  0.66 0.05705811164099547 0  0.68 0.05705811164099547 0  0.7 0.05705811164099547 0  0.72 0.05705811164099547 0  0.74 0.05705811164099547 0  0.76 0.05705811164099547 0  0.78 0.05705811164099547 0  0.8 0.05705811164099547 0  0.82 0.05705811164099547 0  0.84 0.05705811164099547 0  0.86 0.05705811164099547 0  0.88 0.05705811164099547 0  0.9 0.05705811164099547 0  0.92 0.05705811164099547 0  0.9399999999999999 0.05705811164099547 0  0.96 0.05705811164099547 0  0.98 0.05705811164099547 0  1 0.05705811164099547 0  0 0.07667714377545 0  0.02 0.07667714377545 0  0.04 0.07667714377545 0  0.06 0.07667714377545 0  0.08 0.07667714377545 0  0.1 0.07667714377545 0  0.12 0.07667714377545 0  0.14 0.07667714377545 0  0.16 0.07667714377545 0  0.18 0.07667714377545 0  0.2 0.07667714377545 0  0.22 0.07667714377545 0  0.24 0.07667714377545 0  0.26 0.07667714377545 0  0.28 0.07667714377545 0  0.3 0.07667714377545 0  0.32 0.07667714377545 0  0.34 0.07667714377545 0  0.36 0.07667714377545 0  0.38 0.07667714377545 0  0.4 0.07667714377545 0  0.42 0.07667714377545 0  0.44 0.07667714377545 0  0.46 0.07667714377545 0  0.48 0.07667714377545 0  0.5 0.07667714377545 0  0.52 0.07667714377545 0  0.54 0.07667714377545 0  0.5600000000000001 0.07667714377545 0  0.58 0.07667714377545 0  0.6 0.07667714377545 0  0.62 0.07667714377545 0  0.64 0.07667714377545 0  0.66 0.07667714377545 0  0.68 0.07667714377545 0  0.7 0.07667714377545 0  0.72 0.07667714377545 0  0.74 0.07667714377545 0  0.76 0.07667714377545 0  0.78 0.07667714377545 0  0.8 0.07667714377545 0  0.82 0.07667714377545 0  0.84 0.07667714377545 0  0.86 0.07667714377545 0  0.88 0.07667714377545 0  0.9 0.07667714377545 0  0.92 0.07667714377545 0  0.9399999999999999 0.07667714377545 0  0.96 0.07667714377545 0  0.98 0.07667714377545 0  1 0.07667714377545 0  0 0.1098730133816912 0  0.02 0.1098730133816912 0  0.04 0.1098730133816912 0  0.06 0.1098730133816912 0  0.08 0.1098730133816912 0  0.1 0.1098730133816912 0  0.12 0.1098730133816912 0  0.14 0.1098730133816912 0  0.16 0.1098730133816912 0  0.18 0.1098730133816912 0  0.2 0.1098730133816912 0  0.22 0.1098730133816912 0  0.24 0.1098730133816912 0  0.26 0.1098730133816912 0  0.28 0.1098730133816912 0  0.3 0.1098730133816912 0  0.32 0.1098730133816912 0  0.34 0.1098730133816912 0  0.36 0.1098730133816912 0  0.38 0.1098730133816912 0  0.4 0.1098730133816912 0  0.42 0.1098730133816912 0  0.44 0.1098730133816912 0  0.46 0.1098730133816912 0  0.48 0.1098730133816912 0  0.5 0.1098730133816912 0  0.52 0.1098730133816912 0  0.54 0.1098730133816912 0  0.5600000000000001 0.1098730133816912 0  0.58 0.1098730133816912 0  0.6 0.1098730133816912 0  0.62 0.1098730133816912 0  0.64 0.1098730133816912 0  0.66 0.1098730133816912 0  0.68 0.1098730133816912 0  0.7 0.1098730133816912 0  0.72 0.1098730133816912 0  0.74 0.1098730133816912 0  0.76 0.1098730133816912 0  0.78 0.1098730133816912 0  0.8 0.1098730133816912 0  0.82 0.1098730133816912 0  0.84 0.1098730133816912 0  0.86 0.1098730133816912 0  0.88 0.1098730133816912 0  0.9 0.1098730133816912 0  0.92 0.1098730133816912 0  0.9399999999999999 0.1098730133816912 0  0.96 0.1098730133816912 0  0.98 0.1098730133816912 0  1 0.1098730133816912 0  0 0.1603283563168221 0  0.02 0.1603283563168221 0  0.04 0.1603283563168221 0  0.06 0.1603283563168221 0  0.08 0.1603283563168221 0  0.1 0.1603283563168221 0  0.12 0.1603283563168221 0  0.14 0.1603283563168221 0  0.16 0.1603283563168221 0  0.18 0.1603283563168221 0  0.2 0.1603283563168221 0  0.22 0.1603283563168221 0  0.24 0.1603283563168221 0  0.26 0.1603283563168221 0  0.28 0.1603283563168221 0  0.3 0.1603283563168221 0  0.32 0.1603283563168221 0  0.34 0.1603283563168221 0  0.36 0.1603283563168221 0  0.38 0.1603283563168221 0  0.4 0.1603283563168221 0  0.42 0.1603283563168221 0  0.44 0.1603283563168221 0  0.46 0.1603283563168221 0  0.48 0.1603283563168221 0  0.5 0.1603283563168221 0  0.52 0.1603283563168221 0  0.54 0.1603283563168221 0  0.5600000000000001 0.1603283563168221 0  0.58 0.1603283563168221 0 
[...]
<PointData  Vectors="u_paraw"> 
<DataArray  type="Float64"  Name="u_paraw"  NumberOfComponents="3" format="ascii">-3.2727646665293559e-05 -3.1389808028436418e-04 0.0000000000000000e+00  -3.2727646661711362e-05 -3.1389808028342093e-04 0.0000000000000000e+00  -3.2727646652516507e-05 -3.1389808028038516e-04 0.0000000000000000e+00  -3.2727646661975487e-05 -3.1389808028547001e-04 0.0000000000000000e+00  -3.2727646669007812e-05 -3.1389808029723361e-04 0.0000000000000000e+00  -3.2727646664864350e-05 -3.1389808028500397e-04 0.0000000000000000e+00  -3.2727646668330985e-05 -3.1389808028375676e-04 0.0000000000000000e+00  -3.2727646661183104e-05 -3.1389808028795300e-04 0.0000000000000000e+00  -3.2727646667043380e-05 -3.1389808028806142e-04 0.0000000000000000e+00  -3.2727646661859924e-05 -3.1389808029295079e-04 0.0000000000000000e+00  -3.2727646664715774e-05 -3.1389808028527502e-04 0.0000000000000000e+00  -3.2727646666713220e-05 -3.1389808028513407e-04 0.0000000000000000e+00  -3.2727646660753903e-05 -3.1389808028668410e-04 0.0000000000000000e+00  -3.2727646669255423e-05 -3.1389808029072818e-04 0.0000000000000000e+00  -3.2727646656626955e-05 -3.1389808028499367e-04 0.0000000000000000e+00  -3.2727646654877127e-05 -3.1389808028618537e-04 0.0000000000000000e+00  -3.2727646666993852e-05 -3.1389808027895374e-04 0.0000000000000000e+00  -3.2727646671087793e-05 -3.1389808028961237e-04 0.0000000000000000e+00  -3.2727646649115900e-05 -3.1389808027983194e-04 0.0000000000000000e+00  -3.2727646657765991e-05 -3.1389808029338447e-04 0.0000000000000000e+00  -3.2727646656560920e-05 -3.1389808028149170e-04 0.0000000000000000e+00  -3.2727646654233321e-05 -3.1389808028069931e-04 0.0000000000000000e+00  -3.2727646661133583e-05 -3.1389808028783336e-04 0.0000000000000000e+00  -3.2727646663312613e-05 -3.1389808029665968e-04 0.0000000000000000e+00  -3.2727646655240294e-05 -3.1389808029138954e-04 0.0000000000000000e+00  -3.2727646663642773e-05 -3.1389808027719733e-04 0.0000000000000000e+00  -3.2727646668330985e-05 -3.1389808030651416e-04 0.0000000000000000e+00  -3.2727646656148225e-05 -3.1389808030318566e-04 0.0000000000000000e+00  -3.2727646665211010e-05 -3.1389808027806643e-04 0.0000000000000000e+00  -3.2727646662883411e-05 -3.1389808028044994e-04 0.0000000000000000e+00  -3.2727646660456763e-05 -3.1389808029395910e-04 0.0000000000000000e+00  -3.2727646656676476e-05 -3.1389808028725873e-04 0.0000000000000000e+00  -3.2727646673415392e-05 -3.1389808029627929e-04 0.0000000000000000e+00  -3.2727646669271930e-05 -3.1389808027989700e-04 0.0000000000000000e+00  -3.2727646665838309e-05 -3.1389808030554011e-04 0.0000000000000000e+00  -3.2727646653143806e-05 -3.1389808028613116e-04 0.0000000000000000e+00  -3.2727646665640212e-05 -3.1389808029660455e-04 0.0000000000000000e+00  -3.2727646659829464e-05 -3.1389808028916693e-04 0.0000000000000000e+00  -3.2727646658393290e-05 -3.1389808028168593e-04 0.0000000000000000e+00  -3.2727646664220544e-05 -3.1389808028814778e-04 0.0000000000000000e+00  -3.2727646669189395e-05 -3.1389808028703278e-04 0.0000000000000000e+00  -3.2727646659614867e-05 -3.1389808027994037e-04 0.0000000000000000e+00  -3.2727646667059887e-05 -3.1389808029282069e-04 0.0000000000000000e+00  -3.2727646652235875e-05 -3.1389808028718284e-04 0.0000000000000000e+00  -3.2727646665574184e-05 -3.1389808030076789e-04 0.0000000000000000e+00  -3.2727646659812957e-05 -3.1389808028319297e-04 0.0000000000000000e+00  -3.2727646663164043e-05 -3.1389808029752786e-04 0.0000000000000000e+00  -3.2727646664154510e-05 -3.1389808028256413e-04 0.0000000000000000e+00  -3.2727646663296106e-05 -3.1389808028695515e-04 0.0000000000000000e+00  -3.2727646659466297e-05 -3.1389808028878745e-04 0.0000000000000000e+00  -3.2727646665293552e-05 -2.1378881531404281e-15 0.0000000000000000e+00  -5.9701962519090918e-06 -1.4037686303163766e-04 0.0000000000000000e+00  -5.9701962486029045e-06 -1.4037686302764780e-04 0.0000000000000000e+00  -5.9701962451683214e-06 -1.4037686303309055e-04 0.0000000000000000e+00  -5.9701962442374542e-06 -1.4037686302599981e-04 0.0000000000000000e+00  -5.9701962493090818e-06 -1.4037686303452164e-04 0.0000000000000000e+00  -5.9701962486350045e-06 -1.4037686303471691e-04 0.0000000000000000e+00  -5.9701962402571896e-06 -1.4037686301400845e-04 0.0000000000000000e+00  -5.9701962463238836e-06 -1.4037686302409172e-04 0.0000000000000000e+00  -5.9701962453609164e-06 -1.4037686302372310e-04 0.0000000000000000e+00  -5.9701962380423653e-06 -1.4037686302992454e-04 0.0000000000000000e+00  -5.9701962381386620e-06 -1.4037686301823703e-04 0.0000000000000000e+00  -5.9701962540918186e-06 -1.4037686302112101e-04 0.0000000000000000e+00  -5.9701962389090359e-06 -1.4037686303311210e-04 0.0000000000000000e+00  -5.9701962475757407e-06 -1.4037686301708759e-04 0.0000000000000000e+00  -5.9701962487954986e-06 -1.4037686302417862e-04 0.0000000000000000e+00  -5.9701962475757407e-06 -1.4037686303671165e-04 0.0000000000000000e+00  -5.9701962408349703e-06 -1.4037686302428669e-04 0.0000000000000000e+00  -5.9701962449757290e-06 -1.4037686301936477e-04 0.0000000000000000e+00  -5.9701962373040906e-06 -1.4037686301448550e-04 0.0000000000000000e+00  -5.9701962519090926e-06 -1.4037686303801269e-04 0.0000000000000000e+00  -5.9701962315583866e-06 -1.4037686302374494e-04 0.0000000000000000e+00  -5.9701962395510140e-06 -1.4037686303473840e-04 0.0000000000000000e+00  -5.9701962414127501e-06 -1.4037686301426866e-04 0.0000000000000000e+00  -5.9701962496300708e-06 -1.4037686302339800e-04 0.0000000000000000e+00  -5.9701962322003647e-06 -1.4037686302376627e-04 0.0000000000000000e+00  -5.9701962438522677e-06 -1.4037686302977275e-04 0.0000000000000000e+00  -5.9701962560819504e-06 -1.4037686301654549e-04 0.0000000000000000e+00  -5.9701962568523244e-06 -1.4037686304254466e-04 0.0000000000000000e+00  -5.9701962349608705e-06 -1.4037686303777495e-04 0.0000000000000000e+00  -5.9701962326176504e-06 -1.4037686301971136e-04 0.0000000000000000e+00  -5.9701962554399723e-06 -1.4037686304037625e-04 0.0000000000000000e+00  -5.9701962417337392e-06 -1.4037686302569615e-04 0.0000000000000000e+00  -5.9701962537387304e-06 -1.4037686302929570e-04 0.0000000000000000e+00  -5.9701962385238485e-06 -1.4037686301934273e-04 0.0000000000000000e+00  -5.9701962514276094e-06 -1.4037686302515484e-04 0.0000000000000000e+00  -5.9701962335806176e-06 -1.4037686302088230e-04 0.0000000000000000e+00  -5.9701962521979834e-06 -1.4037686303595271e-04 0.0000000000000000e+00  -5.9701962464201802e-06 -1.4037686303144243e-04 0.0000000000000000e+00  -5.9701962417337392e-06 -1.4037686303482514e-04 0.0000000000000000e+00  -5.9701962432102895e-06 -1.4037686303263505e-04 0.0000000000000000e+00  -5.9701962501436532e-06 -1.4037686302673777e-04 0.0000000000000000e+00  -5.9701962414769484e-06 -1.4037686301682738e-04 0.0000000000000000e+00  -5.9701962501757523e-06 -1.4037686304104846e-04 0.0000000000000000e+00  -5.9701962372077939e-06 -1.4037686301643707e-04 0.0000000000000000e+00  -5.9701962502078506e-06 -1.4037686303001128e-04 0.0000000000000000e+00  -5.9701962466769709e-06 -1.4037686304315181e-04 0.0000000000000000e+00  -5.9701962411880585e-06 -1.4037686302094813e-04 0.0000000000000000e+00  -5.9701962381386620e-06 -1.4037686301040890e-04 0.0000000000000000e+00  -5.9701962489238944e-06 -1.4037686303126895e-04 0.0000000000000000e+00  -5.9701962434349820e-06 -1.4037686302240018e-04 0.0000000000000000e+00  -5.9701962519090926e-06 -4.9953596891152323e-04 0.0000000000000000e+00  -1.5080850452021207e-05 2.1221859983640810e-04 0.0000000000000000e+00  -1.5080850451900490e-05 2.1221859983358918e-04 0.0000000000000000e+00  -1.5080850449063633e-05 2.1221859984317355e-04 0.0000000000000000e+00  -1.5080850455884160e-05 2.1221859983328555e-04 0.0000000000000000e+00  -1.5080850455280575e-05 2.1221859984204590e-04 0.0000000000000000e+00  -1.5080850453409455e-05 2.1221859982738768e-04 0.0000000000000000e+00  -1.5080850437354054e-05 2.1221859984256618e-04 0.0000000000000000e+00  -1.5080850448520405e-05 2.1221859984143894e-04 0.0000000000000000e+00  -1.5080850462644330e-05 2.1221859983697202e-04 0.0000000000000000e+00  -1.5080850453590532e-05 2.1221859983853295e-04 0.0000000000000000e+00  -1.5080850446890722e-05 2.1221859982821167e-04 0.0000000000000000e+00  -1.5080850449969013e-05 2.1221859983363268e-04 0.0000000000000000e+00  -1.5080850446890722e-05 2.1221859984109167e-04 0.0000000000000000e+00  -1.5080850448520405e-05 2.1221859983996410e-04 0.0000000000000000e+00  -1.5080850444476375e-05 2.1221859985366898e-04 0.0000000000000000e+00  -1.5080850455159857e-05 2.1221859982738735e-04 0.0000000000000000e+00  -1.5080850440553062e-05 2.1221859983567066e-04 0.0000000000000000e+00  -1.5080850450753675e-05 2.1221859984048508e-04 0.0000000000000000e+00  -1.5080850453168022e-05 2.1221859983033638e-04 0.0000000000000000e+00  -1.5080850461920026e-05 2.1221859982391790e-04 0.0000000000000000e+00  -1.5080850437293696e-05 2.1221859983623501e-04 0.0000000000000000e+00  -1.5080850455039140e-05 2.1221859982638989e-04 0.0000000000000000e+00  -1.5080850438802662e-05 2.1221859984087483e-04 0.0000000000000000e+00  -1.5080850455461650e-05 2.1221859982942622e-04 0.0000000000000000e+00  -1.5080850446226777e-05 2.1221859984412743e-04 0.0000000000000000e+00  -1.5080850448641122e-05 2.1221859983489003e-04 0.0000000000000000e+00  -1.5080850455461650e-05 2.1221859984395396e-04 0.0000000000000000e+00  -1.5080850454858063e-05 2.1221859984677289e-04 0.0000000000000000e+00  -1.5080850449003275e-05 2.1221859983827393e-04 0.0000000000000000e+00  -1.5080850450029372e-05 2.1221859982942565e-04 0.0000000000000000e+00  -1.5080850455401292e-05 2.1221859983198437e-04 0.0000000000000000e+00  -1.5080850447132157e-05 2.1221859983454309e-04 0.0000000000000000e+00  -1.5080850445562832e-05 2.1221859984312997e-04 0.0000000000000000e+00  -1.5080850454737347e-05 2.1221859984759688e-04 0.0000000000000000e+00  -1.5080850466688360e-05 2.1221859982864622e-04 0.0000000000000000e+00  -1.5080850453831967e-05 2.1221859983211447e-04 0.0000000000000000e+00  -1.5080850447373590e-05 2.1221859983350225e-04 0.0000000000000000e+00  -1.5080850442665615e-05 2.1221859984434427e-04 0.0000000000000000e+00  -1.5080850451176185e-05 2.1221859982634652e-04 0.0000000000000000e+00  -1.5080850444778169e-05 2.1221859983944368e-04 0.0000000000000000e+00  -1.5080850454676988e-05 2.1221859984352147e-04 0.0000000000000000e+00  -1.5080850453530173e-05 2.1221859983436961e-04 0.0000000000000000e+00  -1.5080850461316440e-05 2.1221859983285173e-04 0.0000000000000000e+00  -1.5080850433008231e-05 2.1221859984963518e-04 0.0000000000000000e+00  -1.5080850458660658e-05 2.1221859983636455e-04 0.0000000000000000e+00  -1.5080850462946123e-05 2.1221859983389256e-04 0.0000000000000000e+00  -1.5080850437957641e-05 2.1221859984230717e-04 0.0000000000000000e+00  -1.5080850457755280e-05 2.1221859984408406e-04 0.0000000000000000e+00  -1.5080850458841735e-05 2.1221859982920881e-04 0.0000000000000000e+00  -1.5080850441518802e-05 2.1221859984803056e-04 0.0000000000000000e+00  -1.5080850452021207e-05 2.4313474775754717e-04 0.0000000000000000e+00  1.3921004014396792e-04 4.6903558442697516e-04 0.0000000000000000e+00  1.3921004013477608e-04 4.6903558440589826e-04 0.0000000000000000e+00  1.3921004013726329e-04 4.6903558441665360e-04 0.0000000000000000e+00  1.3921004013455981e-04 4.6903558441569940e-04 0.0000000000000000e+00  1.3921004014829348e-04 4.6903558441110238e-04 0.0000000000000000e+00  1.3921004015856670e-04 4.6903558441916917e-04 0.0000000000000000e+00  1.3921004014645511e-04 4.6903558443304625e-04 0.0000000000000000e+00  1.3921004013747954e-04 4.6903558441856202e-04 0.0000000000000000e+00  1.3921004015045625e-04 4.6903558442055695e-04 0.0000000000000000e+00  1.3921004013866910e-04 4.6903558440346922e-04 0.0000000000000000e+00  1.3921004014483300e-04 4.6903558442298556e-04 0.0000000000000000e+00  1.3921004014169698e-04 4.6903558439314832e-04 0.0000000000000000e+00  1.3921004014450861e-04 4.6903558442177055e-04 0.0000000000000000e+00  1.3921004013834468e-04 4.6903558441136221e-04 0.0000000000000000e+00  1.3921004015034812e-04 4.6903558442758318e-04 0.0000000000000000e+00  1.3921004013034237e-04 4.6903558441248978e-04 0.0000000000000000e+00  1.3921004014385977e-04 4.6903558441231631e-04 0.0000000000000000e+00  1.3921004014267024e-04 4.6903558441283803e-04 0.0000000000000000e+00  1.3921004013726329e-04 4.6903558440910707e-04 0.0000000000000000e+00  1.3921004013747957e-04 4.6903558442853597e-04 0.0000000000000000e+00  1.3921004014083187e-04 4.6903558439644489e-04 0.0000000000000000e+00  1.3921004014753652e-04 4.6903558441821437e-04 0.0000000000000000e+00  1.3921004014321096e-04 4.6903558440468352e-04 0.0000000000000000e+00  1.3921004014072372e-04 4.6903558441847588e-04 0.0000000000000000e+00  1.3921004014299466e-04 4.6903558440546415e-04 0.0000000000000000e+00  1.3921004013845283e-04 4.6903558440555089e-04 0.0000000000000000e+00  1.3921004014029120e-04 4.6903558442645430e-04 0.0000000000000000e+00  1.3921004013153190e-04 4.6903558441405103e-04 0.0000000000000000e+00  1.3921004013693887e-04 4.6903558439965548e-04 0.0000000000000000e+00  1.3921004014796906e-04 4.6903558441778069e-04 0.0000000000000000e+00  1.3921004013174820e-04 4.6903558440928054e-04 0.0000000000000000e+00  1.3921004014645511e-04 4.6903558441552555e-04 0.0000000000000000e+00  1.3921004014526560e-04 4.6903558440745908e-04 0.0000000000000000e+00  1.3921004013174820e-04 4.6903558439254046e-04 0.0000000000000000e+00  1.3921004013780399e-04 4.6903558441674251e-04 0.0000000000000000e+00  1.3921004013488423e-04 4.6903558442029604e-04 0.0000000000000000e+00  1.3921004013715515e-04 4.6903558440364269e-04 0.0000000000000000e+00  1.3921004014515745e-04 4.6903558440234165e-04 0.0000000000000000e+00  1.3921004014407607e-04 4.6903558443209216e-04 0.0000000000000000e+00  1.3921004013856095e-04 4.6903558440173449e-04 0.0000000000000000e+00  1.3921004014861790e-04 4.6903558441656904e-04 0.0000000000000000e+00  1.3921004013520865e-04 4.6903558439973956e-04 0.0000000000000000e+00  1.3921004014115631e-04 4.6903558442419916e-04 0.0000000000000000e+00  1.3921004014937489e-04 4.6903558441188263e-04 0.0000000000000000e+00  1.3921004014732025e-04 4.6903558441353061e-04 0.0000000000000000e+00  1.3921004014277839e-04 4.6903558441188263e-04 0.0000000000000000e+00  1.3921004015835043e-04 4.6903558441656904e-04 0.0000000000000000e+00  1.3921004013877725e-04 4.6903558441682659e-04 0.0000000000000000e+00  1.3921004013964236e-04 4.6903558442662778e-04 0.0000000000000000e+00  1.3921004014321096e-04 4.6903558442489305e-04 0.0000000000000000e+00  1.3921004014396792e-04 2.4745353446876793e-04 0.0000000000000000e+00  -2.6884855089005365e-04 -9.8937885911788682e-04 0.0000000000000000e+00  -2.6884855089473995e-04 -9.8937885911129487e-04 0.0000000000000000e+00  -2.6884855090048731e-04 -9.8937885912725476e-04 0.0000000000000000e+00  -2.6884855090464306e-04 -9.8937885913566773e-04 0.0000000000000000e+00  -2.6884855088846210e-04 -9.8937885909212617e-04 0.0000000000000000e+00  -2.6884855089845362e-04 -9.8937885910080044e-04 0.0000000000000000e+00  -2.6884855089500520e-04 -9.8937885910288081e-04 0.0000000000000000e+00  -2.6884855091260088e-04 -9.8937885910600461e-04 0.0000000000000000e+00  -2.6884855091012511e-04 -9.8937885911441802e-04 0.0000000000000000e+00  -2.6884855091578405e-04 -9.8937885913159048e-04 0.0000000000000000e+00  -2.6884855089288315e-04 -9.8937885911346392e-04 0.0000000000000000e+00  -2.6884855090367042e-04 -9.8937885910834649e-04 0.0000000000000000e+00  -2.6884855090756091e-04 -9.8937885911511061e-04 0.0000000000000000e+00  -2.6884855090888722e-04 -9.8937885912048825e-04 0.0000000000000000e+00  -2.6884855090526197e-04 -9.8937885913246044e-04 0.0000000000000000e+00  -2.6884855089907259e-04 -9.8937885912092193e-04 0.0000000000000000e+00  -2.6884855090092939e-04 -9.8937885912126888e-04 0.0000000000000000e+00  -2.6884855090305150e-04 -9.8937885911225092e-04 0.0000000000000000e+00  -2.6884855089827678e-04 -9.8937885912213624e-04 0.0000000000000000e+00  -2.6884855089606626e-04 -9.8937885910470227e-04 0.0000000000000000e+00  -2.6884855090305150e-04 -9.8937885910513855e-04 0.0000000000000000e+00  -2.6884855090720725e-04 -9.8937885911953415e-04 0.0000000000000000e+00  -2.6884855090225570e-04 -9.8937885913974368e-04 0.0000000000000000e+00  -2.6884855089695048e-04 -9.8937885910756716e-04 0.0000000000000000e+00  -2.6884855090039889e-04 -9.8937885911042685e-04 0.0000000000000000e+00  -2.6884855091039036e-04 -9.8937885912742714e-04 0.0000000000000000e+00  -2.6884855090119464e-04 -9.8937885913072312e-04 0.0000000000000000e+00  -2.6884855088404110e-04 -9.8937885910678394e-04 0.0000000000000000e+00  -2.6884855088191899e-04 -9.8937885909854942e-04 0.0000000000000000e+00  -2.6884855088112319e-04 -9.8937885909854400e-04 0.0000000000000000e+00  -2.6884855090367042e-04 -9.8937885912786083e-04 0.0000000000000000e+00  -2.6884855089208734e-04 -9.8937885911623818e-04 0.0000000000000000e+00  -2.6884855089456312e-04 -9.8937885910418185e-04 0.0000000000000000e+00  -2.6884855090119464e-04 -9.8937885911519734e-04 0.0000000000000000e+00  -2.6884855089040737e-04 -9.8937885911884568e-04 0.0000000000000000e+00  -2.6884855088713579e-04 -9.8937885910843192e-04 0.0000000000000000e+00  -2.6884855089951467e-04 -9.8937885910999317e-04 0.0000000000000000e+00  -2.6884855089500520e-04 -9.8937885911970763e-04 0.0000000000000000e+00  -2.6884855088802001e-04 -9.8937885911736575e-04 0.0000000000000000e+00  -2.6884855089350207e-04 -9.8937885910071240e-04 0.0000000000000000e+00  -2.6884855090738408e-04 -9.8937885912058041e-04 0.0000000000000000e+00  -2.6884855089217576e-04 -9.8937885912872819e-04 0.0000000000000000e+00  -2.6884855089164526e-04 -9.8937885911406977e-04 0.0000000000000000e+00  -2.6884855088943474e-04 -9.8937885910366143e-04 0.0000000000000000e+00  -2.6884855089456312e-04 -9.8937885910661046e-04 0.0000000000000000e+00  -2.6884855089491679e-04 -9.8937885912048825e-04 0.0000000000000000e+00  -2.6884855089182209e-04 -9.8937885911615686e-04 0.0000000000000000e+00  -2.6884855090269778e-04 -9.8937885913124354e-04 0.0000000000000000e+00  -2.6884855088899265e-04 -9.8937885911511061e-04 0.0000000000000000e+00  -2.6884855089668523e-04 -9.8937885910175324e-04 0.0000000000000000e+00  -2.6884855089005365e-04 2.0698809568901253e-05 0.0000000000000000e+00  3.3194877295150569e-04 1.1141386225703431e-03 0.0000000000000000e+00  3.3194877296091195e-04 1.1141386225986191e-03 0.0000000000000000e+00  3.3194877293488790e-04 1.1141386225663535e-03 0.0000000000000000e+00  3.3194877293269310e-04 1.1141386225552508e-03 0.0000000000000000e+00  3.3194877292966216e-04 1.1141386225703429e-03 0.0000000000000000e+00  3.3194877292987119e-04 1.1141386225568129e-03 0.0000000000000000e+00  3.3194877293833680e-04 1.1141386225575051e-03 0.0000000000000000e+00  3.3194877293676915e-04 1.1141386225436290e-03 0.0000000000000000e+00  3.3194877294753414e-04 1.1141386225425882e-03 0.0000000000000000e+00  3.3194877295098305e-04 1.1141386225686073e-03 0.0000000000000000e+00  3.3194877295213279e-04 1.1141386225632314e-03 0.0000000000000000e+00  3.3194877295934425e-04 1.1141386225625375e-03 0.0000000000000000e+00  3.3194877295516362e-04 1.1141386225514336e-03 0.0000000000000000e+00  3.3194877294471218e-04 1.1141386225604541e-03 0.0000000000000000e+00  3.3194877295119208e-04 1.1141386225705188e-03 0.0000000000000000e+00  3.3194877293770975e-04 1.1141386225479641e-03 0.0000000000000000e+00  3.3194877294398062e-04 1.1141386225569847e-03 0.0000000000000000e+00  3.3194877294784764e-04 1.1141386225823149e-03 0.0000000000000000e+00  3.3194877293593302e-04 1.1141386225564643e-03 0.0000000000000000e+00  3.3194877293875487e-04 1.1141386225699951e-03 0.0000000000000000e+00  3.3194877293718717e-04 1.1141386225732943e-03 0.0000000000000000e+00  3.3194877292893054e-04 1.1141386225474437e-03 0.0000000000000000e+00  3.3194877293781427e-04 1.1141386225462294e-03 0.0000000000000000e+00  3.3194877293833680e-04 1.1141386225609778e-03 0.0000000000000000e+00  