<?xml version="1.0"?>
<VTKFile type="UnstructuredGrid"  version="0.1"  >
<UnstructuredGrid>
<Piece  NumberOfPoints="2601" NumberOfCells="5000">
<Points>
<DataArray  type="Float64"  NumberOfComponents="3"  format="ascii">0 0 0  0.02 0 0  0.04 0 0  0.06 0 0  0.08 0 0  0.1 0 0  0.12 0 0  0.14 0 0  0.16 0 0  0.18 0 0  0.2 0 0  0.22 0 0  0.24 0 0  0.26 0 0  0.28 0 0  0.3 0 0  0.32 0 0  0.34 0 0  0.36 0 0  0.38 0 0  0.4 0 0  0.42 0 0  0.44 0 0  0.46 0 0  0.48 0 0  0.5 0 0  0.52 0 0  0.54 0 0  0.5600000000000001 0 0  0.58 0 0  0.6 0 0  0.62 0 0  0.64 0 0  0.66 0 0  0.68 0 0  0.7 0 0  0.72 0 0  0.74 0 0  0.76 0 0  0.78 0 0  0.8 0 0  0.82 0 0  0.84 0 0  0.86 0 0  0.88 0 0  0.9 0 0  0.92 0 0  0.9399999999999999 0 0  0.96 0 0  0.98 0 0  1 0 0  0 0.01313563088723984 0  0.02 0.01313563088723984 0  0.04 0.01313563088723984 0  0.06 0.01313563088723984 0  0.08 0.01313563088723984 0  0.1 0.01313563088723984 0  0.12 0.01313563088723984 0  0.14 0.01313563088723984 0  0.16 0.01313563088723984 0  0.18 0.01313563088723984 0  0.2 0.01313563088723984 0  0.22 0.01313563088723984 0  0.24 0.01313563088723984 0  0.26 0.01313563088723984 0  0.28 0.01313563088723984 0  0.3 0.01313563088723984 0  0.32 0.01313563088723984 0  0.34 0.01313563088723984 0  0.36 0.01313563088723984 0  0.38 0.01313563088723984 0  0.4 0.01313563088723984 0  0.42 0.01313563088723984 0  0.44 0.01313563088723984 0  0.46 0.01313563088723984 0  0.48 0.01313563088723984 0  0.5 0.01313563088723984 0  0.52 0.01313563088723984 0  0.54 0.01313563088723984 0  0.5600000000000001 0.01313563088723984 0  0.58 0.01313563088723984 0  0.6 0.01313563088723984 0  0.62 0.01313563088723984 0  0.64 0.01313563088723984 0  0.66 0.01313563088723984 0  0.68 0.01313563088723984 0  0.7 0.01313563088723984 0  0.72 0.01313563088723984 0  0.74 0.01313563088723984 0  0.76 0.01313563088723984 0  0.78 0.01313563088723984 0  0.8 0.01313563088723984 0  0.82 0.01313563088723984 0  0.84 0.01313563088723984 0  0.86 0.01313563088723984 0  0.88 0.01313563088723984 0  0.9 0.01313563088723984 0  0.92 0.01313563088723984 0  0.9399999999999999 0.01313563088723984 0  0.96 0.01313563088723984 0  0.98 0.01313563088723984 0  1 0.01313563088723984 0  0 0.02664639863733726 0  0.02 0.02664639863733726 0  0.04 0.02664639863733726 0  0.06 0.02664639863733726 0  0.08 0.02664639863733726 0  0.1 0.02664639863733726 0  0.12 0.02664639863733726 0  0.14 0.02664639863733726 0  0.16 0.02664639863733726 0  0.18 0.02664639863733726 0  0.2 0.02664639863733726 0  0.22 0.02664639863733726 0  0.24 0.02664639863733726 0  0.26 0.02664639863733726 0  0.28 0.02664639863733726 0  0.3 0.02664639863733726 0  0.32 0.02664639863733726 0  0.34 0.02664639863733726 0  0.36 0.02664639863733726 0  0.38 0.02664639863733726 0  0.4 0.02664639863733726 0  0.42 0.02664639863733726 0  0.44 0.02664639863733726 0  0.46 0.02664639863733726 0  0.48 0.02664639863733726 0  0.5 0.02664639863733726 0  0.52 0.02664639863733726 0  0.54 0.02664639863733726 0  0.5600000000000001 0.02664639863733726 0  0.58 0.02664639863733726 0  0.6 0.02664639863733726 0  0.62 0.02664639863733726 0  0.64 0.02664639863733726 0  0.66 0.02664639863733726 0  0.68 0.02664639863733726 0  0.7 0.02664639863733726 0  0.72 0.02664639863733726 0  0.74 0.02664639863733726 0  0.76 0.02664639863733726 0  0.78 0.02664639863733726 0  0.8 0.02664639863733726 0  0.82 0.02664639863733726 0  0.84 0.02664639863733726 0  0.86 0.02664639863733726 0  0.88 0.02664639863733726 0  0.9 0.02664639863733726 0  0.92 0.02664639863733726 0  0.9399999999999999 0.02664639863733726 0  0.96 0.02664639863733726 0  0.98 0.02664639863733726 0  1 0.02664639863733726 0  0 0.04101652939099896 0  0.02 0.04101652939099896 0  0.04 0.04101652939099896 0  0.06 0.04101652939099896 0  0.08 0.04101652939099896 0  0.1 0.04101652939099896 0  0.12 0.04101652939099896 0  0.14 0.04101652939099896 0  0.16 0.04101652939099896 0  0.18 0.04101652939099896 0  0.2 0.04101652939099896 0  0.22 0.04101652939099896 0  0.24 0.04101652939099896 0  0.26 0.04101652939099896 0  0.28 0.04101652939099896 0  0.3 0.04101652939099896 0  0.32 0.04101652939099896 0  0.34 0.04101652939099896 0  0.36 0.04101652939099896 0  0.38 0.04101652939099896 0  0.4 0.04101652939099896 0  0.42 0.04101652939099896 0  0.44 0.04101652939099896 0  0.46 0.04101652939099896 0  0.48 0.04101652939099896 0  0.5 0.04101652939099896 0  0.52 0.04101652939099896 0  0.54 0.04101652939099896 0  0.5600000000000001 0.04101652939099896 0  0.58 0.04101652939099896 0  0.6 0.04101652939099896 0  0.62 0.04101652939099896 0  0.64 0.04101652939099896 0  0.66 0.04101652939099896 0  0.68 0.04101652939099896 0  0.7 0.04101652939099896 0  0.72 0.04101652939099896 0  0.74 0.04101652939099896 0  0.76 0.04101652939099896 0  0.78 0.04101652939099896 0  0.8 0.04101652939099896 0  0.82 0.04101652939099896 0  0.84 0.04101652939099896 0  0.86 0.04101652939099896 0  0.88 0.04101652939099896 0  0.9 0.04101652939099896 0  0.92 0.04101652939099896 0  0.9399999999999999 0.04101652939099896 0  0.96 0.04101652939099896 0  0.98 0.04101652939099896 0  1 0.04101652939099896 0  0 0.05705811164099547 0  0.02 0.05705811164099547 0  0.04 0.05705811164099547 0  0.06 0.05705811164099547 0  0.08 0.05705811164099547 0  0.1 0.05705811164099547 0  0.12 0.05705811164099547 0  0.14 0.05705811164099547 0  0.16 0.05705811164099547 0  0.18 0.05705811164099547 0  0.2 0.05705811164099547 0  0.22 0.05705811164099547 0  0.24 0.05705811164099547 0  0.26 0.05705811164099547 0  0.28 0.05705811164099547 0  0.3 0.05705811164099547 0  0.32 0.05705811164099547 0  0.34 0.05705811164099547 0  0.36 0.05705811164099547 0  0.38 0.05705811164099547 0  0.4 0.05705811164099547 0  0.42 0.05705811164099547 0  0.44 0.05705811164099547 0  0.46 0.05705811164099547 0  0.48 0.05705811164099547 0  0.5 0.05705811164099547 0  0.52 0.05705811164099547 0  0.54 0.05705811164099547 0  0.5600000000000001 0.05705811164099547 0  0.58 0.05705811164099547 0  0.6 0.05705811164099547 0  0.62 0.05705811164099547 0  0.64 0.05705811164099547 0  0.66 0.05705811164099547 0  0.68 0.05705811164099547 0  0.7 0.05705811164099547 0  0.72 0.05705811164099547 0  0.74 0.05705811164099547 0  0.76 0.05705811164099547 0  0.78 0.05705811164099547 0  0.8 0.05705811164099547 0  0.82 0.05705811164099547 0  0.84 0.05705811164099547 0  0.86 0.05705811164099547 0  0.88 0.05705811164099547 0  0.9 0.05705811164099547 0  0.92 0.05705811164099547 0  0.9399999999999999 0.05705811164099547 0  0.96 0.05705811164099547 0  0.98 0.05705811164099547 0  1 0.05705811164099547 0  0 0.07667714377545 0  0.02 0.07667714377545 0  0.04 0.07667714377545 0  0.06 0.07667714377545 0  0.08 0.07667714377545 0  0.1 0.07667714377545 0  0.12 0.07667714377545 0  0.14 0.07667714377545 0  0.16 0.07667714377545 0  0.18 0.07667714377545 0  0.2 0.07667714377545 0  0.22 0.07667714377545 0  0.24 0.07667714377545 0  0.26 0.07667714377545 0  0.28 0.07667714377545 0  0.3 0.07667714377545 0  0.32 0.07667714377545 0  0.34 0.07667714377545 0  0.36 0.07667714377545 0  0.38 0.07667714377545 0  0.4 0.07667714377545 0  0.42 0.07667714377545 0  0.44 0.07667714377545 0  0.46 0.07667714377545 0  0.48 0.07667714377545 0  0.5 0.07667714377545 0  0.52 0.07667714377545 0  0.54 0.07667714377545 0  0.5600000000000001 0.07667714377545 0  0.58 0.07667714377545 0  0.6 0.07667714377545 0  0.62 0.07667714377545 0  0.64 0.07667714377545 0  0.66 0.07667714377545 0  0.68 0.07667714377545 0  0.7 0.07667714377545 0  0.72 0.07667714377545 0  0.74 0.07667714377545 0  0.76 0.07667714377545 0  0.78 0.07667714377545 0  0.8 0.07667714377545 0  0.82 0.07667714377545 0  0.84 0.07667714377545 0  0.86 0.07667714377545 0  0.88 0.07667714377545 0  0.9 0.07667714377545 0  0.92 0.07667714377545 0  0.9399999999999999 0.07667714377545 0  0.96 0.07667714377545 0  0.98 0.07667714377545 0  1 0.07667714377545 0  0 0.1098730133816912 0  0.02 0.1098730133816912 0  0.04 0.1098730133816912 0  0.06 0.1098730133816912 0  0.08 0.1098730133816912 0  0.1 0.1098730133816912 0  0.12 0.1098730133816912 0  0.14 0.1098730133816912 0  0.16 0.1098730133816912 0  0.18 0.1098730133816912 0  0.2 0.1098730133816912 0  0.22 0.1098730133816912 0  0.24 0.1098730133816912 0  0.26 0.1098730133816912 0  0.28 0.1098730133816912 0  0.3 0.1098730133816912 0  0.32 0.1098730133816912 0  0.34 0.1098730133816912 0  0.36 0.1098730133816912 0  0.38 0.1098730133816912 0  0.4 0.1098730133816912 0  0.42 0.1098730133816912 0  0.44 0.1098730133816912 0  0.46 0.1098730133816912 0  0.48 0.1098730133816912 0  0.5 0.1098730133816912 0  0.52 0.1098730133816912 0  0.54 0.1098730133816912 0  0.5600000000000001 0.1098730133816912 0  0.58 0.1098730133816912 0  0.6 0.1098730133816912 0  0.62 0.1098730133816912 0  0.64 0.1098730133816912 0  0.66 0.1098730133816912 0  0.68 0.1098730133816912 0  0.7 0.1098730133816912 0  0.72 0.1098730133816912 0  0.74 0.1098730133816912 0  0.76 0.1098730133816912 0  0.78 0.1098730133816912 0  0.8 0.1098730133816912 0  0.82 0.1098730133816912 0  0.84 0.1098730133816912 0  0.86 0.1098730133816912 0  0.88 0.1098730133816912 0  0.9 0.1098730133816912 0  0.92 0.1098730133816912 0  0.9399999999999999 0.1098730133816912 0  0.96 0.1098730133816912 0  0.98 0.1098730133816912 0  1 0.1098730133816912 0  0 0.1603283563168221 0  0.02 0.1603283563168221 0  0.04 0.1603283563168221 0  0.06 0.1603283563168221 0  0.08 0.1603283563168221 0  0.1 0.1603283563168221 0  0.12 0.1603283563168221 0  0.14 0.1603283563168221 0  0.16 0.1603283563168221 0  0.18 0.1603283563168221 0  0.2 0.1603283563168221 0  0.22 0.1603283563168221 0  0.24 0.1603283563168221 0  0.26 0.1603283563168221 0  0.28 0.1603283563168221 0  0.3 0.1603283563168221 0  0.32 0.1603283563168221 0  0.34 0.1603283563168221 0  0.36 0.1603283563168221 0  0.38 0.1603283563168221 0  0.4 0.1603283563168221 0  0.42 0.1603283563168221 0  0.44 0.1603283563168221 0  0.46 0.1603283563168221 0  0.48 0.1603283563168221 0  0.5 0.1603283563168221 0  0.52 0.1603283563168221 0  0.54 0.1603283563168221 0  0.5600000000000001 0.1603283563168221 0  0.58 0.1603283563168221 0 
[...]
<PointData  Vectors="u_paraw"> 
<DataArray  type="Float64"  Name="u_paraw"  NumberOfComponents="3" format="ascii">2.2095015310757905e-05 2.6702899750673682e-04 0.0000000000000000e+00  2.2095015295422153e-05 2.6702899749589479e-04 0.0000000000000000e+00  2.2095015314884853e-05 2.6702899750238917e-04 0.0000000000000000e+00  2.2095015307258249e-05 2.6702899751281914e-04 0.0000000000000000e+00  2.2095015302338926e-05 2.6702899750346247e-04 0.0000000000000000e+00  2.2095015307720465e-05 2.6702899750923059e-04 0.0000000000000000e+00  2.2095015297089439e-05 2.6702899750466572e-04 0.0000000000000000e+00  2.2095015307819510e-05 2.6702899749566722e-04 0.0000000000000000e+00  2.2095015296016431e-05 2.6702899749527691e-04 0.0000000000000000e+00  2.2095015309635369e-05 2.6702899750012291e-04 0.0000000000000000e+00  2.2095015307538878e-05 2.6702899750828733e-04 0.0000000000000000e+00  2.2095015304996678e-05 2.6702899749523354e-04 0.0000000000000000e+00  2.2095015303923670e-05 2.6702899749435496e-04 0.0000000000000000e+00  2.2095015300638616e-05 2.6702899750158658e-04 0.0000000000000000e+00  2.2095015308578872e-05 2.6702899750189097e-04 0.0000000000000000e+00  2.2095015309338230e-05 2.6702899751828330e-04 0.0000000000000000e+00  2.2095015314587710e-05 2.6702899749460432e-04 0.0000000000000000e+00  2.2095015318665140e-05 2.6702899749818300e-04 0.0000000000000000e+00  2.2095015314703266e-05 2.6702899751079146e-04 0.0000000000000000e+00  2.2095015304237316e-05 2.6702899749949407e-04 0.0000000000000000e+00  2.2095015312722330e-05 2.6702899749489787e-04 0.0000000000000000e+00  2.2095015308199191e-05 2.6702899748497661e-04 0.0000000000000000e+00  2.2095015313382643e-05 2.6702899750215037e-04 0.0000000000000000e+00  2.2095015302190350e-05 2.6702899749934310e-04 0.0000000000000000e+00  2.2095015299714177e-05 2.6702899749494043e-04 0.0000000000000000e+00  2.2095015315347072e-05 2.6702899751306829e-04 0.0000000000000000e+00  2.2095015302933201e-05 2.6702899750087101e-04 0.0000000000000000e+00  2.2095015301331943e-05 2.6702899749709799e-04 0.0000000000000000e+00  2.2095015305359849e-05 2.6702899750481897e-04 0.0000000000000000e+00  2.2095015311088058e-05 2.6702899749991691e-04 0.0000000000000000e+00  2.2095015309618862e-05 2.6702899749316233e-04 0.0000000000000000e+00  2.2095015314274064e-05 2.6702899750297436e-04 0.0000000000000000e+00  2.2095015302470982e-05 2.6702899750263826e-04 0.0000000000000000e+00  2.2095015302883676e-05 2.6702899749396464e-04 0.0000000000000000e+00  2.2095015314488665e-05 2.6702899751357932e-04 0.0000000000000000e+00  2.2095015304468428e-05 2.6702899749954828e-04 0.0000000000000000e+00  2.2095015315792780e-05 2.6702899750257321e-04 0.0000000000000000e+00  2.2095015295488181e-05 2.6702899750421035e-04 0.0000000000000000e+00  2.2095015309041088e-05 2.6702899749989523e-04 0.0000000000000000e+00  2.2095015304765567e-05 2.6702899750474161e-04 0.0000000000000000e+00  2.2095015309882988e-05 2.6702899749135318e-04 0.0000000000000000e+00  2.2095015315396593e-05 2.6702899751856519e-04 0.0000000000000000e+00  2.2095015307687448e-05 2.6702899750303942e-04 0.0000000000000000e+00  2.2095015309998543e-05 2.6702899750432962e-04 0.0000000000000000e+00  2.2095015307060152e-05 2.6702899749926639e-04 0.0000000000000000e+00  2.2095015304782074e-05 2.6702899749407306e-04 0.0000000000000000e+00  2.2095015305310324e-05 2.6702899751026167e-04 0.0000000000000000e+00  2.2095015302966218e-05 2.6702899749829061e-04 0.0000000000000000e+00  2.2095015312639792e-05 2.6702899750978315e-04 0.0000000000000000e+00  2.2095015304864615e-05 2.6702899750610771e-04 0.0000000000000000e+00  2.2095015310757901e-05 -3.9173798224602661e-15 0.0000000000000000e+00  2.5731671130126077e-05 2.6925611135240191e-04 0.0000000000000000e+00  2.5731671138118707e-05 2.6925611136580265e-04 0.0000000000000000e+00  2.5731671156222488e-05 2.6925611136606296e-04 0.0000000000000000e+00  2.5731671155291626e-05 2.6925611137332701e-04 0.0000000000000000e+00  2.5731671130992755e-05 2.6925611136740727e-04 0.0000000000000000e+00  2.5731671144410095e-05 2.6925611136231173e-04 0.0000000000000000e+00  2.5731671145918746e-05 2.6925611137410747e-04 0.0000000000000000e+00  2.5731671134812524e-05 2.6925611134546323e-04 0.0000000000000000e+00  2.5731671152691614e-05 2.6925611137473669e-04 0.0000000000000000e+00  2.5731671152466920e-05 2.6925611134656874e-04 0.0000000000000000e+00  2.5731671130575469e-05 2.6925611133952180e-04 0.0000000000000000e+00  2.5731671137027349e-05 2.6925611134813037e-04 0.0000000000000000e+00  2.5731671146817515e-05 2.6925611135079713e-04 0.0000000000000000e+00  2.5731671148775547e-05 2.6925611136417618e-04 0.0000000000000000e+00  2.5731671145116273e-05 2.6925611137239519e-04 0.0000000000000000e+00  2.5731671139819953e-05 2.6925611134934429e-04 0.0000000000000000e+00  2.5731671142580460e-05 2.6925611135296553e-04 0.0000000000000000e+00  2.5731671158084229e-05 2.6925611135814877e-04 0.0000000000000000e+00  2.5731671160716340e-05 2.6925611136810099e-04 0.0000000000000000e+00  2.5731671147716285e-05 2.6925611135532909e-04 0.0000000000000000e+00  2.5731671143703920e-05 2.6925611135784520e-04 0.0000000000000000e+00  2.5731671147844678e-05 2.6925611135569772e-04 0.0000000000000000e+00  2.5731671152787912e-05 2.6925611136075010e-04 0.0000000000000000e+00  2.5731671149899008e-05 2.6925611136569482e-04 0.0000000000000000e+00  2.5731671142291568e-05 2.6925611137245948e-04 0.0000000000000000e+00  2.5731671150219999e-05 2.6925611136241977e-04 0.0000000000000000e+00  2.5731671133849556e-05 2.6925611135749749e-04 0.0000000000000000e+00  2.5731671141424897e-05 2.6925611136868646e-04 0.0000000000000000e+00  2.5731671150765678e-05 2.6925611135955900e-04 0.0000000000000000e+00  2.5731671149481722e-05 2.6925611134711084e-04 0.0000000000000000e+00  2.5731671156190396e-05 2.6925611136194272e-04 0.0000000000000000e+00  2.5731671150348392e-05 2.6925611134548453e-04 0.0000000000000000e+00  2.5731671135229810e-05 2.6925611136029474e-04 0.0000000000000000e+00  2.5731671143447131e-05 2.6925611135231501e-04 0.0000000000000000e+00  2.5731671158341022e-05 2.6925611135402957e-04 0.0000000000000000e+00  2.5731671139466865e-05 2.6925611136035979e-04 0.0000000000000000e+00  2.5731671143896512e-05 2.6925611134834683e-04 0.0000000000000000e+00  2.5731671143382932e-05 2.6925611135717223e-04 0.0000000000000000e+00  2.5731671155548416e-05 2.6925611136586754e-04 0.0000000000000000e+00  2.5731671148133571e-05 2.6925611135795286e-04 0.0000000000000000e+00  2.5731671140301437e-05 2.6925611134852182e-04 0.0000000000000000e+00  2.5731671158405221e-05 2.6925611136545554e-04 0.0000000000000000e+00  2.5731671149706416e-05 2.6925611135669518e-04 0.0000000000000000e+00  2.5731671141842183e-05 2.6925611136552059e-04 0.0000000000000000e+00  2.5731671146368130e-05 2.6925611135754086e-04 0.0000000000000000e+00  2.5731671136513766e-05 2.6925611135595793e-04 0.0000000000000000e+00  2.5731671149000241e-05 2.6925611135979752e-04 0.0000000000000000e+00  2.5731671148005174e-05 2.6925611136192104e-04 0.0000000000000000e+00  2.5731671149545920e-05 2.6925611134852030e-04 0.0000000000000000e+00  2.5731671150508888e-05 2.6925611136710353e-04 0.0000000000000000e+00  2.5731671130126084e-05 4.5199227348171586e-04 0.0000000000000000e+00  -2.3673314870930699e-05 -2.2095108925964356e-04 0.0000000000000000e+00  -2.3673314851736647e-05 -2.2095108923449007e-04 0.0000000000000000e+00  -2.3673314859160762e-05 -2.2095108924177594e-04 0.0000000000000000e+00  -2.3673314862299412e-05 -2.2095108924658971e-04 0.0000000000000000e+00  -2.3673314876242259e-05 -2.2095108923102057e-04 0.0000000000000000e+00  -2.3673314877449434e-05 -2.2095108926194218e-04 0.0000000000000000e+00  -2.3673314861333673e-05 -2.2095108923700526e-04 0.0000000000000000e+00  -2.3673314878415173e-05 -2.2095108925400582e-04 0.0000000000000000e+00  -2.3673314863989453e-05 -2.2095108924598272e-04 0.0000000000000000e+00  -2.3673314876362978e-05 -2.2095108924472478e-04 0.0000000000000000e+00  -2.3673314867429898e-05 -2.2095108924932206e-04 0.0000000000000000e+00  -2.3673314863808378e-05 -2.2095108925391908e-04 0.0000000000000000e+00  -2.3673314861394033e-05 -2.2095108924489825e-04 0.0000000000000000e+00  -2.3673314851434853e-05 -2.2095108923249497e-04 0.0000000000000000e+00  -2.3673314848054771e-05 -2.2095108923188839e-04 0.0000000000000000e+00  -2.3673314874371143e-05 -2.2095108925504638e-04 0.0000000000000000e+00  -2.3673314861695824e-05 -2.2095108925413565e-04 0.0000000000000000e+00  -2.3673314849322302e-05 -2.2095108923327617e-04 0.0000000000000000e+00  -2.3673314865679497e-05 -2.2095108924650287e-04 0.0000000000000000e+00  -2.3673314868214559e-05 -2.2095108924628603e-04 0.0000000000000000e+00  -2.3673314866041648e-05 -2.2095108924572281e-04 0.0000000000000000e+00  -2.3673314858798608e-05 -2.2095108923531390e-04 0.0000000000000000e+00  -2.3673314866162367e-05 -2.2095108924220943e-04 0.0000000000000000e+00  -2.3673314859522913e-05 -2.2095108924190642e-04 0.0000000000000000e+00  -2.3673314864894833e-05 -2.2095108922364789e-04 0.0000000000000000e+00  -2.3673314869482093e-05 -2.2095108924463804e-04 0.0000000000000000e+00  -2.3673314868214559e-05 -2.2095108923687515e-04 0.0000000000000000e+00  -2.3673314870327113e-05 -2.2095108924810749e-04 0.0000000000000000e+00  -2.3673314876181903e-05 -2.2095108923804728e-04 0.0000000000000000e+00  -2.3673314882217768e-05 -2.2095108926901090e-04 0.0000000000000000e+00  -2.3673314849986247e-05 -2.2095108924364057e-04 0.0000000000000000e+00  -2.3673314869482093e-05 -2.2095108925287798e-04 0.0000000000000000e+00  -2.3673314854996013e-05 -2.2095108923873998e-04 0.0000000000000000e+00  -2.3673314877509793e-05 -2.2095108924151554e-04 0.0000000000000000e+00  -2.3673314884451038e-05 -2.2095108926255025e-04 0.0000000000000000e+00  -2.3673314868335278e-05 -2.2095108924186248e-04 0.0000000000000000e+00  -2.3673314872982893e-05 -2.2095108924125533e-04 0.0000000000000000e+00  -2.3673314857772513e-05 -2.2095108925127336e-04 0.0000000000000000e+00  -2.3673314855418527e-05 -2.2095108924385741e-04 0.0000000000000000e+00  -2.3673314871715363e-05 -2.2095108925391881e-04 0.0000000000000000e+00  -2.3673314873767554e-05 -2.2095108925608841e-04 0.0000000000000000e+00  -2.3673314863385868e-05 -2.2095108924797738e-04 0.0000000000000000e+00  -2.3673314870508188e-05 -2.2095108925053610e-04 0.0000000000000000e+00  -2.3673314859824707e-05 -2.2095108923045667e-04 0.0000000000000000e+00  -2.3673314868576713e-05 -2.2095108924064818e-04 0.0000000000000000e+00  -2.3673314870930699e-05 -2.2095108923318886e-04 0.0000000000000000e+00  -2.3673314870327113e-05 -2.2095108924507291e-04 0.0000000000000000e+00  -2.3673314881372745e-05 -2.2095108924910495e-04 0.0000000000000000e+00  -2.3673314865075909e-05 -2.2095108924845443e-04 0.0000000000000000e+00  -2.3673314862902998e-05 -2.2095108924164564e-04 0.0000000000000000e+00  -2.3673314870930699e-05 -4.0536234120344804e-06 0.0000000000000000e+00  -3.0850691027034901e-05 -8.1408132688448598e-05 0.0000000000000000e+00  -3.0850691028224433e-05 -8.1408132708918335e-05 0.0000000000000000e+00  -3.0850691034820923e-05 -8.1408132715076617e-05 0.0000000000000000e+00  -3.0850691028332576e-05 -8.1408132724704305e-05 0.0000000000000000e+00  -3.0850691018491910e-05 -8.1408132705448874e-05 0.0000000000000000e+00  -3.0850691020438412e-05 -8.1408132697122269e-05 0.0000000000000000e+00  -3.0850691029738379e-05 -8.1408132697469092e-05 0.0000000000000000e+00  -3.0850691032874414e-05 -8.1408132713168462e-05 0.0000000000000000e+00  -3.0850691022493056e-05 -8.1408132697642686e-05 0.0000000000000000e+00  -3.0850691031901166e-05 -8.1408132711954033e-05 0.0000000000000000e+00  -3.0850691026494203e-05 -8.1408132716117491e-05 0.0000000000000000e+00  -3.0850691021844222e-05 -8.1408132700938661e-05 0.0000000000000000e+00  -3.0850691028981410e-05 -8.1408132718112302e-05 0.0000000000000000e+00  -3.0850691024872121e-05 -8.1408132712300978e-05 0.0000000000000000e+00  -3.0850691027359315e-05 -8.1408132711780778e-05 0.0000000000000000e+00  -3.0850691036334869e-05 -8.1408132718372510e-05 0.0000000000000000e+00  -3.0850691016977957e-05 -8.1408132701545692e-05 0.0000000000000000e+00  -3.0850691013625644e-05 -8.1408132696948892e-05 0.0000000000000000e+00  -3.0850691040660442e-05 -8.1408132727566544e-05 0.0000000000000000e+00  -3.0850691021195388e-05 -8.1408132712821395e-05 0.0000000000000000e+00  -3.0850691024223280e-05 -8.1408132708831748e-05 0.0000000000000000e+00  -3.0850691026169789e-05 -8.1408132709438684e-05 0.0000000000000000e+00  -3.0850691032441865e-05 -8.1408132710392782e-05 0.0000000000000000e+00  -3.0850691028224433e-05 -8.1408132704494939e-05 0.0000000000000000e+00  -3.0850691025412813e-05 -8.1408132706663127e-05 0.0000000000000000e+00  -3.0850691029954657e-05 -8.1408132704581458e-05 0.0000000000000000e+00  -3.0850691035145343e-05 -8.1408132695127215e-05 0.0000000000000000e+00  -3.0850691046283677e-05 -8.1408132708571322e-05 0.0000000000000000e+00  -3.0850691025845375e-05 -8.1408132702413501e-05 0.0000000000000000e+00  -3.0850691031901166e-05 -8.1408132707530488e-05 0.0000000000000000e+00  -3.0850691029089545e-05 -8.1408132728694115e-05 0.0000000000000000e+00  -3.0850691028873267e-05 -8.1408132723663417e-05 0.0000000000000000e+00  -3.0850691018816323e-05 -8.1408132703540624e-05 0.0000000000000000e+00  -3.0850691036334869e-05 -8.1408132718632719e-05 0.0000000000000000e+00  -3.0850691021519808e-05 -8.1408132686974462e-05 0.0000000000000000e+00  -3.0850691027251179e-05 -8.1408132713515284e-05 0.0000000000000000e+00  -3.0850691041309276e-05 -8.1408132710566254e-05 0.0000000000000000e+00  -3.0850691016977957e-05 -8.1408132716204106e-05 0.0000000000000000e+00  -3.0850691031468610e-05 -8.1408132713775493e-05 0.0000000000000000e+00  -3.0850691031468610e-05 -8.1408132704928403e-05 0.0000000000000000e+00  -3.0850691021303524e-05 -8.1408132694867454e-05 0.0000000000000000e+00  -3.0850691025196535e-05 -8.1408132725484876e-05 0.0000000000000000e+00  -3.0850691008759379e-05 -8.1408132698249718e-05 0.0000000000000000e+00  -3.0850691019140744e-05 -8.1408132700157914e-05 0.0000000000000000e+00  -3.0850691023898867e-05 -8.1408132702673263e-05 0.0000000000000000e+00  -3.0850691025629091e-05 -8.1408132712127506e-05 0.0000000000000000e+00  -3.0850691021952364e-05 -8.1408132703801280e-05 0.0000000000000000e+00  -3.0850691024763979e-05 -8.1408132709785629e-05 0.0000000000000000e+00  -3.0850691018924466e-05 -8.1408132705362084e-05 0.0000000000000000e+00  -3.0850691030170942e-05 -8.1408132704321250e-05 0.0000000000000000e+00  -3.0850691027034901e-05 -3.1722739029842130e-04 0.0000000000000000e+00  2.0986967593984487e-04 1.0467945966994086e-03 0.0000000000000000e+00  2.0986967593215230e-04 1.0467945966873523e-03 0.0000000000000000e+00  2.0986967592755447e-04 1.0467945966803271e-03 0.0000000000000000e+00  2.0986967592808494e-04 1.0467945966762501e-03 0.0000000000000000e+00  2.0986967592949969e-04 1.0467945966798930e-03 0.0000000000000000e+00  2.0986967591747450e-04 1.0467945966802406e-03 0.0000000000000000e+00  2.0986967591941975e-04 1.0467945967024437e-03 0.0000000000000000e+00  2.0986967591473348e-04 1.0467945966891744e-03 0.0000000000000000e+00  2.0986967590951665e-04 1.0467945967074757e-03 0.0000000000000000e+00  2.0986967591526398e-04 1.0467945966824077e-03 0.0000000000000000e+00  2.0986967591570609e-04 1.0467945966981082e-03 0.0000000000000000e+00  2.0986967589811044e-04 1.0467945966762507e-03 0.0000000000000000e+00  2.0986967591331873e-04 1.0467945966859639e-03 0.0000000000000000e+00  2.0986967590827876e-04 1.0467945966697442e-03 0.0000000000000000e+00  2.0986967591747450e-04 1.0467945966913443e-03 0.0000000000000000e+00  2.0986967591128506e-04 1.0467945966418151e-03 0.0000000000000000e+00  2.0986967593763435e-04 1.0467945966900405e-03 0.0000000000000000e+00  2.0986967592136500e-04 1.0467945966651500e-03 0.0000000000000000e+00  2.0986967592260289e-04 1.0467945966782443e-03 0.0000000000000000e+00  2.0986967593409755e-04 1.0467945966873516e-03 0.0000000000000000e+00  2.0986967592224919e-04 1.0467945966808492e-03 0.0000000000000000e+00  2.0986967592437130e-04 1.0467945966827546e-03 0.0000000000000000e+00  2.0986967592454814e-04 1.0467945966622849e-03 0.0000000000000000e+00  2.0986967592048081e-04 1.0467945966744308e-03 0.0000000000000000e+00  2.0986967591880081e-04 1.0467945966882190e-03 0.0000000000000000e+00  2.0986967592481339e-04 1.0467945967016631e-03 0.0000000000000000e+00  2.0986967591296506e-04 1.0467945967016631e-03 0.0000000000000000e+00  2.0986967593542385e-04 1.0467945966791984e-03 0.0000000000000000e+00  2.0986967594320484e-04 1.0467945966746938e-03 0.0000000000000000e+00  2.0986967593453966e-04 1.0467945966850098e-03 0.0000000000000000e+00  2.0986967593038388e-04 1.0467945966948977e-03 0.0000000000000000e+00  2.0986967593409755e-04 1.0467945966831016e-03 0.0000000000000000e+00  2.0986967592543233e-04 1.0467945966678360e-03 0.0000000000000000e+00  2.0986967592569761e-04 1.0467945966661013e-03 0.0000000000000000e+00  2.0986967593524702e-04 1.0467945966760816e-03 0.0000000000000000e+00  2.0986967593135652e-04 1.0467945966862241e-03 0.0000000000000000e+00  2.0986967592693550e-04 1.0467945966824077e-03 0.0000000000000000e+00  2.0986967592879233e-04 1.0467945966819740e-03 0.0000000000000000e+00  2.0986967592534391e-04 1.0467945966657543e-03 0.0000000000000000e+00  2.0986967593400913e-04 1.0467945966870914e-03 0.0000000000000000e+00  2.0986967591756292e-04 1.0467945966852756e-03 0.0000000000000000e+00  2.0986967592808494e-04 1.0467945966668819e-03 0.0000000000000000e+00  2.0986967593648490e-04 1.0467945966706983e-03 0.0000000000000000e+00  2.0986967593383227e-04 1.0467945966818005e-03 0.0000000000000000e+00  2.0986967593011863e-04 1.0467945966749484e-03 0.0000000000000000e+00  2.0986967593215230e-04 1.0467945966934232e-03 0.0000000000000000e+00  2.0986967592136500e-04 1.0467945966940360e-03 0.0000000000000000e+00  2.0986967592180711e-04 1.0467945966777239e-03 0.0000000000000000e+00  2.0986967593834174e-04 1.0467945967031376e-03 0.0000000000000000e+00  2.0986967593100283e-04 1.0467945966972396e-03 0.0000000000000000e+00  2.0986967593984487e-04 3.0808826780221772e-04 0.0000000000000000e+00  -6.1273000364438321e-04 -2.4095118266242305e-03 0.0000000000000000e+00  -6.1273000364041156e-04 -2.4095118265817297e-03 0.0000000000000000e+00  -6.1273000366382285e-04 -2.4095118265928324e-03 0.0000000000000000e+00  -6.1273000366319575e-04 -2.4095118265994235e-03 0.0000000000000000e+00  -6.1273000368085870e-04 -2.4095118266070563e-03 0.0000000000000000e+00  -6.1273000370071641e-04 -2.4095118266434876e-03 0.0000000000000000e+00  -6.1273000366340467e-04 -2.4095118265841558e-03 0.0000000000000000e+00  -6.1273000366842149e-04 -2.4095118266240587e-03 0.0000000000000000e+00  -6.1273000365410298e-04 -2.4095118266242322e-03 0.0000000000000000e+00  -6.1273000363769412e-04 -2.4095118266172890e-03 0.0000000000000000e+00  -6.1273000365274436e-04 -2.4095118266309976e-03 0.0000000000000000e+00  -6.1273000365347587e-04 -2.4095118266686411e-03 0.0000000000000000e+00  -6.1273000363100524e-04 -2.4095118266103501e-03 0.0000000000000000e+00  -6.1273000364605527e-04 -2.4095118265747882e-03 0.0000000000000000e+00  -6.1273000365441653e-04 -2.4095118266263165e-03 0.0000000000000000e+00  -6.1273000365117650e-04 -2.4095118265930028e-03 0.0000000000000000e+00  -6.1273000365608869e-04 -2.4095118265855435e-03 0.0000000000000000e+00  -6.1273000366371822e-04 -2.4095118266084488e-03 0.0000000000000000e+00  -6.1273000365546159e-04 -2.4095118266169420e-03 0.0000000000000000e+00  -6.1273000365985120e-04 -2.4095118265751352e-03 0.0000000000000000e+00  -6.1273000366946656e-04 -2.4095118266261430e-03 0.0000000000000000e+00  -6.1273000366162799e-04 -2.4095118266129522e-03 0.0000000000000000e+00  -6.1273000367490134e-04 -2.4095118266167686e-03 0.0000000000000000e+00  -6.1273000365985120e-04 -2.4095118266053263e-03 0.0000000000000000e+00  -6.1273000366633115e-04 -2.4095118266108705e-03 0.0000000000000000e+00  -6.1273000367176582e-04 -2.4095