<?xml version="1.0"?>
<VTKFile type="UnstructuredGrid"  version="0.1"  >
<UnstructuredGrid>
<Piece  NumberOfPoints="2601" NumberOfCells="5000">
<Points>
<DataArray  type="Float64"  NumberOfComponents="3"  format="ascii">0 0 0  0.02 0 0  0.04 0 0  0.06 0 0  0.08 0 0  0.1 0 0  0.12 0 0  0.14 0 0  0.16 0 0  0.18 0 0  0.2 0 0  0.22 0 0  0.24 0 0  0.26 0 0  0.28 0 0  0.3 0 0  0.32 0 0  0.34 0 0  0.36 0 0  0.38 0 0  0.4 0 0  0.42 0 0  0.44 0 0  0.46 0 0  0.48 0 0  0.5 0 0  0.52 0 0  0.54 0 0  0.5600000000000001 0 0  0.58 0 0  0.6 0 0  0.62 0 0  0.64 0 0  0.66 0 0  0.68 0 0  0.7 0 0  0.72 0 0  0.74 0 0  0.76 0 0  0.78 0 0  0.8 0 0  0.82 0 0  0.84 0 0  0.86 0 0  0.88 0 0  0.9 0 0  0.92 0 0  0.9399999999999999 0 0  0.96 0 0  0.98 0 0  1 0 0  0 0.01313563088723984 0  0.02 0.01313563088723984 0  0.04 0.01313563088723984 0  0.06 0.01313563088723984 0  0.08 0.01313563088723984 0  0.1 0.01313563088723984 0  0.12 0.01313563088723984 0  0.14 0.01313563088723984 0  0.16 0.01313563088723984 0  0.18 0.01313563088723984 0  0.2 0.01313563088723984 0  0.22 0.01313563088723984 0  0.24 0.01313563088723984 0  0.26 0.01313563088723984 0  0.28 0.01313563088723984 0  0.3 0.01313563088723984 0  0.32 0.01313563088723984 0  0.34 0.01313563088723984 0  0.36 0.01313563088723984 0  0.38 0.01313563088723984 0  0.4 0.01313563088723984 0  0.42 0.01313563088723984 0  0.44 0.01313563088723984 0  0.46 0.01313563088723984 0  0.48 0.01313563088723984 0  0.5 0.01313563088723984 0  0.52 0.01313563088723984 0  0.54 0.01313563088723984 0  0.5600000000000001 0.01313563088723984 0  0.58 0.01313563088723984 0  0.6 0.01313563088723984 0  0.62 0.01313563088723984 0  0.64 0.01313563088723984 0  0.66 0.01313563088723984 0  0.68 0.01313563088723984 0  0.7 0.01313563088723984 0  0.72 0.01313563088723984 0  0.74 0.01313563088723984 0  0.76 0.01313563088723984 0  0.78 0.01313563088723984 0  0.8 0.01313563088723984 0  0.82 0.01313563088723984 0  0.84 0.01313563088723984 0  0.86 0.01313563088723984 0  0.88 0.01313563088723984 0  0.9 0.01313563088723984 0  0.92 0.01313563088723984 0  0.9399999999999999 0.01313563088723984 0  0.96 0.01313563088723984 0  0.98 0.01313563088723984 0  1 0.01313563088723984 0  0 0.02664639863733726 0  0.02 0.02664639863733726 0  0.04 0.02664639863733726 0  0.06 0.02664639863733726 0  0.08 0.02664639863733726 0  0.1 0.02664639863733726 0  0.12 0.02664639863733726 0  0.14 0.02664639863733726 0  0.16 0.02664639863733726 0  0.18 0.02664639863733726 0  0.2 0.02664639863733726 0  0.22 0.02664639863733726 0  0.24 0.02664639863733726 0  0.26 0.02664639863733726 0  0.28 0.02664639863733726 0  0.3 0.02664639863733726 0  0.32 0.02664639863733726 0  0.34 0.02664639863733726 0  0.36 0.02664639863733726 0  0.38 0.02664639863733726 0  0.4 0.02664639863733726 0  0.42 0.02664639863733726 0  0.44 0.02664639863733726 0  0.46 0.02664639863733726 0  0.48 0.02664639863733726 0  0.5 0.02664639863733726 0  0.52 0.02664639863733726 0  0.54 0.02664639863733726 0  0.5600000000000001 0.02664639863733726 0  0.58 0.02664639863733726 0  0.6 0.02664639863733726 0  0.62 0.02664639863733726 0  0.64 0.02664639863733726 0  0.66 0.02664639863733726 0  0.68 0.02664639863733726 0  0.7 0.02664639863733726 0  0.72 0.02664639863733726 0  0.74 0.02664639863733726 0  0.76 0.02664639863733726 0  0.78 0.02664639863733726 0  0.8 0.02664639863733726 0  0.82 0.02664639863733726 0  0.84 0.02664639863733726 0  0.86 0.02664639863733726 0  0.88 0.02664639863733726 0  0.9 0.02664639863733726 0  0.92 0.02664639863733726 0  0.9399999999999999 0.02664639863733726 0  0.96 0.02664639863733726 0  0.98 0.02664639863733726 0  1 0.02664639863733726 0  0 0.04101652939099896 0  0.02 0.04101652939099896 0  0.04 0.04101652939099896 0  0.06 0.04101652939099896 0  0.08 0.04101652939099896 0  0.1 0.04101652939099896 0  0.12 0.04101652939099896 0  0.14 0.04101652939099896 0  0.16 0.04101652939099896 0  0.18 0.04101652939099896 0  0.2 0.04101652939099896 0  0.22 0.04101652939099896 0  0.24 0.04101652939099896 0  0.26 0.04101652939099896 0  0.28 0.04101652939099896 0  0.3 0.04101652939099896 0  0.32 0.04101652939099896 0  0.34 0.04101652939099896 0  0.36 0.04101652939099896 0  0.38 0.04101652939099896 0  0.4 0.04101652939099896 0  0.42 0.04101652939099896 0  0.44 0.04101652939099896 0  0.46 0.04101652939099896 0  0.48 0.04101652939099896 0  0.5 0.04101652939099896 0  0.52 0.04101652939099896 0  0.54 0.04101652939099896 0  0.5600000000000001 0.04101652939099896 0  0.58 0.04101652939099896 0  0.6 0.04101652939099896 0  0.62 0.04101652939099896 0  0.64 0.04101652939099896 0  0.66 0.04101652939099896 0  0.68 0.04101652939099896 0  0.7 0.04101652939099896 0  0.72 0.04101652939099896 0  0.74 0.04101652939099896 0  0.76 0.04101652939099896 0  0.78 0.04101652939099896 0  0.8 0.04101652939099896 0  0.82 0.04101652939099896 0  0.84 0.04101652939099896 0  0.86 0.04101652939099896 0  0.88 0.04101652939099896 0  0.9 0.04101652939099896 0  0.92 0.04101652939099896 0  0.9399999999999999 0.04101652939099896 0  0.96 0.04101652939099896 0  0.98 0.04101652939099896 0  1 0.04101652939099896 0  0 0.05705811164099547 0  0.02 0.05705811164099547 0  0.04 0.05705811164099547 0  0.06 0.05705811164099547 0  0.08 0.05705811164099547 0  0.1 0.05705811164099547 0  0.12 0.05705811164099547 0  0.14 0.05705811164099547 0  0.16 0.05705811164099547 0  0.18 0.05705811164099547 0  0.2 0.05705811164099547 0  0.22 0.05705811164099547 0  0.24 0.05705811164099547 0  0.26 0.05705811164099547 0  0.28 0.05705811164099547 0  0.3 0.05705811164099547 0  0.32 0.05705811164099547 0  0.34 0.05705811164099547 0  0.36 0.05705811164099547 0  0.38 0.05705811164099547 0  0.4 0.05705811164099547 0  0.42 0.05705811164099547 0  0.44 0.05705811164099547 0  0.46 0.05705811164099547 0  0.48 0.05705811164099547 0  0.5 0.05705811164099547 0  0.52 0.05705811164099547 0  0.54 0.05705811164099547 0  0.5600000000000001 0.05705811164099547 0  0.58 0.05705811164099547 0  0.6 0.05705811164099547 0  0.62 0.05705811164099547 0  0.64 0.05705811164099547 0  0.66 0.05705811164099547 0  0.68 0.05705811164099547 0  0.7 0.05705811164099547 0  0.72 0.05705811164099547 0  0.74 0.05705811164099547 0  0.76 0.05705811164099547 0  0.78 0.05705811164099547 0  0.8 0.05705811164099547 0  0.82 0.05705811164099547 0  0.84 0.05705811164099547 0  0.86 0.05705811164099547 0  0.88 0.05705811164099547 0  0.9 0.05705811164099547 0  0.92 0.05705811164099547 0  0.9399999999999999 0.05705811164099547 0  0.96 0.05705811164099547 0  0.98 0.05705811164099547 0  1 0.05705811164099547 0  0 0.07667714377545 0  0.02 0.07667714377545 0  0.04 0.07667714377545 0  0.06 0.07667714377545 0  0.08 0.07667714377545 0  0.1 0.07667714377545 0  0.12 0.07667714377545 0  0.14 0.07667714377545 0  0.16 0.07667714377545 0  0.18 0.07667714377545 0  0.2 0.07667714377545 0  0.22 0.07667714377545 0  0.24 0.07667714377545 0  0.26 0.07667714377545 0  0.28 0.07667714377545 0  0.3 0.07667714377545 0  0.32 0.07667714377545 0  0.34 0.07667714377545 0  0.36 0.07667714377545 0  0.38 0.07667714377545 0  0.4 0.07667714377545 0  0.42 0.07667714377545 0  0.44 0.07667714377545 0  0.46 0.07667714377545 0  0.48 0.07667714377545 0  0.5 0.07667714377545 0  0.52 0.07667714377545 0  0.54 0.07667714377545 0  0.5600000000000001 0.07667714377545 0  0.58 0.07667714377545 0  0.6 0.07667714377545 0  0.62 0.07667714377545 0  0.64 0.07667714377545 0  0.66 0.07667714377545 0  0.68 0.07667714377545 0  0.7 0.07667714377545 0  0.72 0.07667714377545 0  0.74 0.07667714377545 0  0.76 0.07667714377545 0  0.78 0.07667714377545 0  0.8 0.07667714377545 0  0.82 0.07667714377545 0  0.84 0.07667714377545 0  0.86 0.07667714377545 0  0.88 0.07667714377545 0  0.9 0.07667714377545 0  0.92 0.07667714377545 0  0.9399999999999999 0.07667714377545 0  0.96 0.07667714377545 0  0.98 0.07667714377545 0  1 0.07667714377545 0  0 0.1098730133816912 0  0.02 0.1098730133816912 0  0.04 0.1098730133816912 0  0.06 0.1098730133816912 0  0.08 0.1098730133816912 0  0.1 0.1098730133816912 0  0.12 0.1098730133816912 0  0.14 0.1098730133816912 0  0.16 0.1098730133816912 0  0.18 0.1098730133816912 0  0.2 0.1098730133816912 0  0.22 0.1098730133816912 0  0.24 0.1098730133816912 0  0.26 0.1098730133816912 0  0.28 0.1098730133816912 0  0.3 0.1098730133816912 0  0.32 0.1098730133816912 0  0.34 0.1098730133816912 0  0.36 0.1098730133816912 0  0.38 0.1098730133816912 0  0.4 0.1098730133816912 0  0.42 0.1098730133816912 0  0.44 0.1098730133816912 0  0.46 0.1098730133816912 0  0.48 0.1098730133816912 0  0.5 0.1098730133816912 0  0.52 0.1098730133816912 0  0.54 0.1098730133816912 0  0.5600000000000001 0.1098730133816912 0  0.58 0.1098730133816912 0  0.6 0.1098730133816912 0  0.62 0.1098730133816912 0  0.64 0.1098730133816912 0  0.66 0.1098730133816912 0  0.68 0.1098730133816912 0  0.7 0.1098730133816912 0  0.72 0.1098730133816912 0  0.74 0.1098730133816912 0  0.76 0.1098730133816912 0  0.78 0.1098730133816912 0  0.8 0.1098730133816912 0  0.82 0.1098730133816912 0  0.84 0.1098730133816912 0  0.86 0.1098730133816912 0  0.88 0.1098730133816912 0  0.9 0.1098730133816912 0  0.92 0.1098730133816912 0  0.9399999999999999 0.1098730133816912 0  0.96 0.1098730133816912 0  0.98 0.1098730133816912 0  1 0.1098730133816912 0  0 0.1603283563168221 0  0.02 0.1603283563168221 0  0.04 0.1603283563168221 0  0.06 0.1603283563168221 0  0.08 0.1603283563168221 0  0.1 0.1603283563168221 0  0.12 0.1603283563168221 0  0.14 0.1603283563168221 0  0.16 0.1603283563168221 0  0.18 0.1603283563168221 0  0.2 0.1603283563168221 0  0.22 0.1603283563168221 0  0.24 0.1603283563168221 0  0.26 0.1603283563168221 0  0.28 0.1603283563168221 0  0.3 0.1603283563168221 0  0.32 0.1603283563168221 0  0.34 0.1603283563168221 0  0.36 0.1603283563168221 0  0.38 0.1603283563168221 0  0.4 0.1603283563168221 0  0.42 0.1603283563168221 0  0.44 0.1603283563168221 0  0.46 0.1603283563168221 0  0.48 0.1603283563168221 0  0.5 0.1603283563168221 0  0.52 0.1603283563168221 0  0.54 0.1603283563168221 0  0.5600000000000001 0.1603283563168221 0  0.58 0.1603283563168221 0 
[...]
<PointData  Vectors="u_paraw"> 
<DataArray  type="Float64"  Name="u_paraw"  NumberOfComponents="3" format="ascii">1.9778102912443046e-05 1.5507242027329492e-04 0.0000000000000000e+00  1.9778102904981519e-05 1.5507242027119157e-04 0.0000000000000000e+00  1.9778102903941522e-05 1.5507242027238419e-04 0.0000000000000000e+00  1.9778102899203785e-05 1.5507242026415507e-04 0.0000000000000000e+00  1.9778102905575801e-05 1.5507242026248540e-04 0.0000000000000000e+00  1.9778102913631606e-05 1.5507242027927977e-04 0.0000000000000000e+00  1.9778102906648802e-05 1.5507242027288276e-04 0.0000000000000000e+00  1.9778102899666001e-05 1.5507242026935932e-04 0.0000000000000000e+00  1.9778102900656470e-05 1.5507242027088805e-04 0.0000000000000000e+00  1.9778102903726921e-05 1.5507242026657270e-04 0.0000000000000000e+00  1.9778102903858983e-05 1.5507242026198675e-04 0.0000000000000000e+00  1.9778102910230995e-05 1.5507242028646803e-04 0.0000000000000000e+00  1.9778102898064743e-05 1.5507242026578124e-04 0.0000000000000000e+00  1.9778102910643690e-05 1.5507242027109383e-04 0.0000000000000000e+00  1.9778102910544645e-05 1.5507242027780550e-04 0.0000000000000000e+00  1.9778102907028482e-05 1.5507242026845922e-04 0.0000000000000000e+00  1.9778102912162410e-05 1.5507242025460311e-04 0.0000000000000000e+00  1.9778102913978269e-05 1.5507242026992335e-04 0.0000000000000000e+00  1.9778102903528827e-05 1.5507242027410791e-04 0.0000000000000000e+00  1.9778102913119862e-05 1.5507242026637755e-04 0.0000000000000000e+00  1.9778102912987800e-05 1.5507242026238814e-04 0.0000000000000000e+00  1.9778102904948498e-05 1.5507242025766056e-04 0.0000000000000000e+00  1.9778102910594169e-05 1.5507242026028433e-04 0.0000000000000000e+00  1.9778102914985246e-05 1.5507242027599488e-04 0.0000000000000000e+00  1.9778102900029171e-05 1.5507242026957594e-04 0.0000000000000000e+00  1.9778102909455130e-05 1.5507242026051201e-04 0.0000000000000000e+00  1.9778102908959897e-05 1.5507242027677505e-04 0.0000000000000000e+00  1.9778102892336537e-05 1.5507242028132870e-04 0.0000000000000000e+00  1.9778102914275408e-05 1.5507242026471959e-04 0.0000000000000000e+00  1.9778102913317956e-05 1.5507242026890374e-04 0.0000000000000000e+00  1.9778102909966870e-05 1.5507242027607032e-04 0.0000000000000000e+00  1.9778102895175879e-05 1.5507242026143359e-04 0.0000000000000000e+00  1.9778102907276101e-05 1.5507242026544513e-04 0.0000000000000000e+00  1.9778102906038013e-05 1.5507242025925434e-04 0.0000000000000000e+00  1.9778102919656954e-05 1.5507242027862990e-04 0.0000000000000000e+00  1.9778102892930815e-05 1.5507242025609931e-04 0.0000000000000000e+00  1.9778102904288185e-05 1.5507242027382602e-04 0.0000000000000000e+00  1.9778102907952921e-05 1.5507242027307792e-04 0.0000000000000000e+00  1.9778102903726921e-05 1.5507242026630165e-04 0.0000000000000000e+00  1.9778102905592304e-05 1.5507242026489219e-04 0.0000000000000000e+00  1.9778102900375838e-05 1.5507242027066101e-04 0.0000000000000000e+00  1.9778102906813882e-05 1.5507242026788459e-04 0.0000000000000000e+00  1.9778102901911062e-05 1.5507242026426335e-04 0.0000000000000000e+00  1.9778102913417001e-05 1.5507242026669197e-04 0.0000000000000000e+00  1.9778102913284939e-05 1.5507242027340318e-04 0.0000000000000000e+00  1.9778102903396764e-05 1.5507242026121675e-04 0.0000000000000000e+00  1.9778102907441177e-05 1.5507242027639644e-04 0.0000000000000000e+00  1.9778102902818993e-05 1.5507242027461748e-04 0.0000000000000000e+00  1.9778102903908508e-05 1.5507242026852427e-04 0.0000000000000000e+00  1.9778102908778310e-05 1.5507242027019394e-04 0.0000000000000000e+00  1.9778102912443042e-05 -9.5964351319686650e-15 0.0000000000000000e+00  -1.9130000146842709e-06 1.1496914749820757e-04 0.0000000000000000e+00  -1.9130000127583365e-06 1.1496914749857620e-04 0.0000000000000000e+00  -1.9130000166744032e-06 1.1496914750649090e-04 0.0000000000000000e+00  -1.9130000119879630e-06 1.1496914750859422e-04 0.0000000000000000e+00  -1.9130000084249846e-06 1.1496914751230219e-04 0.0000000000000000e+00  -1.9130000068200392e-06 1.1496914750638253e-04 0.0000000000000000e+00  -1.9130000062422590e-06 1.1496914750863751e-04 0.0000000000000000e+00  -1.9130000148126671e-06 1.1496914750943998e-04 0.0000000000000000e+00  -1.9130000097731387e-06 1.1496914751787508e-04 0.0000000000000000e+00  -1.9129999999187743e-06 1.1496914753441984e-04 0.0000000000000000e+00  -1.9130000110249958e-06 1.1496914751043745e-04 0.0000000000000000e+00  -1.9130000022298957e-06 1.1496914751297448e-04 0.0000000000000000e+00  -1.9130000047015116e-06 1.1496914752199488e-04 0.0000000000000000e+00  -1.9130000112496882e-06 1.1496914751761470e-04 0.0000000000000000e+00  -1.9130000200768875e-06 1.1496914749861979e-04 0.0000000000000000e+00  -1.9130000054718851e-06 1.1496914751574988e-04 0.0000000000000000e+00  -1.9130000191139203e-06 1.1496914749404415e-04 0.0000000000000000e+00  -1.9130000053434897e-06 1.1496914750046294e-04 0.0000000000000000e+00  -1.9130000065311489e-06 1.1496914749783886e-04 0.0000000000000000e+00  -1.9130000031607637e-06 1.1496914750182872e-04 0.0000000000000000e+00  -1.9130000171558872e-06 1.1496914748825482e-04 0.0000000000000000e+00  -1.9130000072373249e-06 1.1496914750872425e-04 0.0000000000000000e+00  -1.9130000054397863e-06 1.1496914749820749e-04 0.0000000000000000e+00  -1.9130000001755655e-06 1.1496914750505995e-04 0.0000000000000000e+00  -1.9130000092595560e-06 1.1496914750781352e-04 0.0000000000000000e+00  -1.9130000147484692e-06 1.1496914750119988e-04 0.0000000000000000e+00  -1.9130000053755884e-06 1.1496914749662455e-04 0.0000000000000000e+00  -1.9130000095484463e-06 1.1496914751622693e-04 0.0000000000000000e+00  -1.9130000118916664e-06 1.1496914750850804e-04 0.0000000000000000e+00  -1.9130000077509077e-06 1.1496914749397910e-04 0.0000000000000000e+00  -1.9130000106077101e-06 1.1496914749551866e-04 0.0000000000000000e+00  -1.9130000210077560e-06 1.1496914749168059e-04 0.0000000000000000e+00  -1.9130000066916434e-06 1.1496914750677268e-04 0.0000000000000000e+00  -1.9130000143311835e-06 1.1496914749111680e-04 0.0000000000000000e+00  -1.9129999979607412e-06 1.1496914749953085e-04 0.0000000000000000e+00  -1.9130000172200851e-06 1.1496914750358513e-04 0.0000000000000000e+00  -1.9130000085854791e-06 1.1496914749996389e-04 0.0000000000000000e+00  -1.9130000135929083e-06 1.1496914749707991e-04 0.0000000000000000e+00  -1.9130000082965888e-06 1.1496914751013371e-04 0.0000000000000000e+00  -1.9130000103830177e-06 1.1496914749660287e-04 0.0000000000000000e+00  -1.9130000120200622e-06 1.1496914751061140e-04 0.0000000000000000e+00  -1.9130000116990731e-06 1.1496914750100473e-04 0.0000000000000000e+00  -1.9130000023582911e-06 1.1496914751080591e-04 0.0000000000000000e+00  -1.9130000155830406e-06 1.1496914749430436e-04 0.0000000000000000e+00  -1.9130000043805225e-06 1.1496914749610413e-04 0.0000000000000000e+00  -1.9130000084570833e-06 1.1496914750878930e-04 0.0000000000000000e+00  -1.9130000044768192e-06 1.1496914750896341e-04 0.0000000000000000e+00  -1.9130000078472043e-06 1.1496914751082760e-04 0.0000000000000000e+00  -1.9130000074299186e-06 1.1496914751110949e-04 0.0000000000000000e+00  -1.9130000169311948e-06 1.1496914749345868e-04 0.0000000000000000e+00  -1.9130000146842713e-06 2.3456443502063677e-04 0.0000000000000000e+00  2.0515829973509952e-05 -4.7642743611570407e-05 0.0000000000000000e+00  2.0515829956790606e-05 -4.7642743630478893e-05 0.0000000000000000e+00  2.0515829959627462e-05 -4.7642743632603942e-05 0.0000000000000000e+00  2.0515829967896597e-05 -4.7642743614302583e-05 0.0000000000000000e+00  2.0515829960110332e-05 -4.7642743623453249e-05 0.0000000000000000e+00  2.0515829959204952e-05 -4.7642743636203514e-05 0.0000000000000000e+00  2.0515829964456153e-05 -4.7642743617988843e-05 0.0000000000000000e+00  2.0515829964878663e-05 -4.7642743623583401e-05 0.0000000000000000e+00  2.0515829958782441e-05 -4.7642743629438092e-05 0.0000000000000000e+00  2.0515829965965122e-05 -4.7642743633818195e-05 0.0000000000000000e+00  2.0515829950030436e-05 -4.7642743629177884e-05 0.0000000000000000e+00  2.0515829957152757e-05 -4.7642743642275046e-05 0.0000000000000000e+00  2.0515829968862337e-05 -4.7642743627486454e-05 0.0000000000000000e+00  2.0515829966206553e-05 -4.7642743619680198e-05 0.0000000000000000e+00  2.0515829961498581e-05 -4.7642743626966172e-05 0.0000000000000000e+00  2.0515829966387632e-05 -4.7642743625231313e-05 0.0000000000000000e+00  2.0515829951961912e-05 -4.7642743624060375e-05 0.0000000000000000e+00  2.0515829966991217e-05 -4.7642743627009541e-05 0.0000000000000000e+00  2.0515829963369697e-05 -4.7642743630045171e-05 0.0000000000000000e+00  2.0515829967353368e-05 -4.7642743614345924e-05 0.0000000000000000e+00  2.0515829956669887e-05 -4.7642743629915202e-05 0.0000000000000000e+00  2.0515829968801977e-05 -4.7642743622629228e-05 0.0000000000000000e+00  2.0515829967775878e-05 -4.7642743620677664e-05 0.0000000000000000e+00  2.0515829965421892e-05 -4.7642743623800302e-05 0.0000000000000000e+00  2.0515829955221281e-05 -4.7642743628093607e-05 0.0000000000000000e+00  2.0515829966387632e-05 -4.7642743621848603e-05 0.0000000000000000e+00  2.0515829964697588e-05 -4.7642743617121481e-05 0.0000000000000000e+00  2.0515829965059742e-05 -4.7642743627312982e-05 0.0000000000000000e+00  2.0515829950634022e-05 -4.7642743632821000e-05 0.0000000000000000e+00  2.0515829952625857e-05 -4.7642743641494346e-05 0.0000000000000000e+00  2.0515829967715522e-05 -4.7642743618422524e-05 0.0000000000000000e+00  2.0515829952565497e-05 -4.7642743620200615e-05 0.0000000000000000e+00  2.0515829964576872e-05 -4.7642743631909999e-05 0.0000000000000000e+00  2.0515829953048367e-05 -4.7642743629958435e-05 0.0000000000000000e+00  2.0515829965301176e-05 -4.7642743626272419e-05 0.0000000000000000e+00  2.0515829956307736e-05 -4.7642743622412388e-05 0.0000000000000000e+00  2.0515829962826471e-05 -4.7642743623886903e-05 0.0000000000000000e+00  2.0515829964576872e-05 -4.7642743629438018e-05 0.0000000000000000e+00  2.0515829972423497e-05 -4.7642743617902107e-05 0.0000000000000000e+00  2.0515829958903157e-05 -4.7642743619680198e-05 0.0000000000000000e+00  2.0515829957152757e-05 -4.7642743624884640e-05 0.0000000000000000e+00  2.0515829954436617e-05 -4.7642743631736526e-05 0.0000000000000000e+00  2.0515829969224487e-05 -4.7642743615343390e-05 0.0000000000000000e+00  2.0515829952505141e-05 -4.7642743618205683e-05 0.0000000000000000e+00  2.0515829968258748e-05 -4.7642743631736526e-05 0.0000000000000000e+00  2.0515829967594803e-05 -4.7642743618899573e-05 0.0000000000000000e+00  2.0515829956971681e-05 -4.7642743632127110e-05 0.0000000000000000e+00  2.0515829954376257e-05 -4.7642743632777361e-05 0.0000000000000000e+00  2.0515829963067906e-05 -4.7642743617468426e-05 0.0000000000000000e+00  2.0515829958480647e-05 -4.7642743625491522e-05 0.0000000000000000e+00  2.0515829973509952e-05 4.7512578507364459e-06 0.0000000000000000e+00  -4.5994508271621216e-05 -3.8094239449264905e-04 0.0000000000000000e+00  -4.5994508284273497e-05 -3.8094239449152148e-04 0.0000000000000000e+00  -4.5994508288058372e-05 -3.8094239450375133e-04 0.0000000000000000e+00  -4.5994508266106117e-05 -3.8094239449880726e-04 0.0000000000000000e+00  -4.5994508271188660e-05 -3.8094239449958789e-04 0.0000000000000000e+00  -4.5994508255616610e-05 -3.8094239448059294e-04 0.0000000000000000e+00  -4.5994508273027027e-05 -3.8094239449481713e-04 0.0000000000000000e+00  -4.5994508269458430e-05 -3.8094239448926656e-04 0.0000000000000000e+00  -4.5994508274540966e-05 -3.8094239449334316e-04 0.0000000000000000e+00  -4.5994508285787449e-05 -3.8094239450418464e-04 0.0000000000000000e+00  -4.5994508269025874e-05 -3.8094239451242511e-04 0.0000000000000000e+00  -4.5994508258968929e-05 -3.8094239447695002e-04 0.0000000000000000e+00  -4.5994508272486328e-05 -3.8094239449767942e-04 0.0000000000000000e+00  -4.5994508274000281e-05 -3.8094239448987317e-04 0.0000000000000000e+00  -4.5994508276379332e-05 -3.8094239449447121e-04 0.0000000000000000e+00  -4.5994508268593318e-05 -3.8094239449603144e-04 0.0000000000000000e+00  -4.5994508278325848e-05 -3.8094239448961296e-04 0.0000000000000000e+00  -4.5994508263402632e-05 -3.8094239447825155e-04 0.0000000000000000e+00  -4.5994508272486328e-05 -3.8094239448779150e-04 0.0000000000000000e+00  -4.5994508271837494e-05 -3.8094239450244991e-04 0.0000000000000000e+00  -4.5994508279731652e-05 -3.8094239448883336e-04 0.0000000000000000e+00  -4.5994508273351440e-05 -3.8094239449785290e-04 0.0000000000000000e+00  -4.5994508276163061e-05 -3.8094239449230178e-04 0.0000000000000000e+00  -4.5994508269242152e-05 -3.8094239449594573e-04 0.0000000000000000e+00  -4.5994508276163061e-05 -3.8094239449290893e-04 0.0000000000000000e+00  -4.5994508277244451e-05 -3.8094239450409790e-04 0.0000000000000000e+00  -4.5994508275081671e-05 -3.8094239448484247e-04 0.0000000000000000e+00  -4.5994508280704906e-05 -3.8094239449663859e-04 0.0000000000000000e+00  -4.5994508269890992e-05 -3.8094239448493132e-04 0.0000000000000000e+00  -4.5994508269134016e-05 -3.8094239449568449e-04 0.0000000000000000e+00  -4.5994508274865393e-05 -3.8094239448787824e-04 0.0000000000000000e+00  -4.5994508277568872e-05 -3.8094239449889373e-04 0.0000000000000000e+00  -4.5994508271404938e-05 -3.8094239448770476e-04 0.0000000000000000e+00  -4.5994508270864240e-05 -3.8094239447764337e-04 0.0000000000000000e+00  -4.5994508273243305e-05 -3.8094239449646723e-04 0.0000000000000000e+00  -4.5994508276054926e-05 -3.8094239451363888e-04 0.0000000000000000e+00  -4.5994508274757251e-05 -3.8094239449499060e-04 0.0000000000000000e+00  -4.5994508276487482e-05 -3.8094239450028151e-04 0.0000000000000000e+00  -4.5994508267295650e-05 -3.8094239450314380e-04 0.0000000000000000e+00  -4.5994508277677007e-05 -3.8094239449342935e-04 0.0000000000000000e+00  -4.5994508272270050e-05 -3.8094239448206903e-04 0.0000000000000000e+00  -4.5994508284597917e-05 -3.8094239449854678e-04 0.0000000000000000e+00  -4.5994508262213106e-05 -3.8094239448917928e-04 0.0000000000000000e+00  -4.5994508259942184e-05 -3.8094239447651580e-04 0.0000000000000000e+00  -4.5994508266214259e-05 -3.8094239447894441e-04 0.0000000000000000e+00  -4.5994508275838641e-05 -3.8094239451268478e-04 0.0000000000000000e+00  -4.5994508270107270e-05 -3.8094239450314592e-04 0.0000000000000000e+00  -4.5994508261996828e-05 -3.8094239448033219e-04 0.0000000000000000e+00  -4.5994508275297949e-05 -3.8094239449889373e-04 0.0000000000000000e+00  -4.5994508263078218e-05 -3.8094239446662787e-04 0.0000000000000000e+00  -4.5994508271621216e-05 -1.9055367399853284e-04 0.0000000000000000e+00  5.3411245725317617e-05 1.7296717088610689e-04 0.0000000000000000e+00  5.3411245730180738e-05 1.7296717087908126e-04 0.0000000000000000e+00  5.3411245715326111e-05 1.7296717086771887e-04 0.0000000000000000e+00  5.3411245723814466e-05 1.7296717086867289e-04 0.0000000000000000e+00  5.3411245729738634e-05 1.7296717087925470e-04 0.0000000000000000e+00  5.3411245736547011e-05 1.7296717091412278e-04 0.0000000000000000e+00  5.3411245704008287e-05 1.7296717087986175e-04 0.0000000000000000e+00  5.3411245714088217e-05 1.7296717087136185e-04 0.0000000000000000e+00  5.3411245716033472e-05 1.7296717088896929e-04 0.0000000000000000e+00  5.3411245718951345e-05 1.7296717088124953e-04 0.0000000000000000e+00  5.3411245718067137e-05 1.7296717088974991e-04 0.0000000000000000e+00  5.3411245716563992e-05 1.7296717087170879e-04 0.0000000000000000e+00  5.3411245696492551e-05 1.7296717086112673e-04 0.0000000000000000e+00  5.3411245719570288e-05 1.7296717086763195e-04 0.0000000000000000e+00  5.3411245707368264e-05 1.7296717087075494e-04 0.0000000000000000e+00  5.3411245716387152e-05 1.7296717087552494e-04 0.0000000000000000e+00  5.3411245720896593e-05 1.7296717086398903e-04 0.0000000000000000e+00  5.3411245725848138e-05 1.7296717087942855e-04 0.0000000000000000e+00  5.3411245710639824e-05 1.7296717086208083e-04 0.0000000000000000e+00  5.3411245717271353e-05 1.7296717087708619e-04 0.0000000000000000e+00  5.3411245724256569e-05 1.7296717088185717e-04 0.0000000000000000e+00  5.3411245713911377e-05 1.7296717085921854e-04 0.0000000000000000e+00  5.3411245720189232e-05 1.7296717087856070e-04 0.0000000000000000e+00  5.3411245714707161e-05 1.7296717087136209e-04 0.0000000000000000e+00  5.3411245714176640e-05 1.7296717087856070e-04 0.0000000000000000e+00  5.3411245712054552e-05 1.7296717086442271e-04 0.0000000000000000e+00  5.3411245725936561e-05 1.7296717088203015e-04 0.0000000000000000e+00  5.3411245741233298e-05 1.7296717087934133e-04 0.0000000000000000e+00  5.3411245739111203e-05 1.7296717088897002e-04 0.0000000000000000e+00  5.3411245719216608e-05 1.7296717087058098e-04 0.0000000000000000e+00  5.3411245728412330e-05 1.7296717087647904e-04 0.0000000000000000e+00  5.3411245717625040e-05 1.7296717087274938e-04 0.0000000000000000e+00  5.3411245723195522e-05 1.7296717086156041e-04 0.0000000000000000e+00  5.3411245731507049e-05 1.7296717087656577e-04 0.0000000000000000e+00  5.3411245717448193e-05 1.7296717089027106e-04 0.0000000000000000e+00  5.3411245706926167e-05 1.7296717084690200e-04 0.0000000000000000e+00  5.3411245725406034e-05 1.7296717086164715e-04 0.0000000000000000e+00  5.3411245727793386e-05 1.7296717086589722e-04 0.0000000000000000e+00  5.3411245723814466e-05 1.7296717088038216e-04 0.0000000000000000e+00  5.3411245731064946e-05 1.7296717086589722e-04 0.0000000000000000e+00  5.3411245731860730e-05 1.7296717088853634e-04 0.0000000000000000e+00  5.3411245719216608e-05 1.7296717088281078e-04 0.0000000000000000e+00  5.3411245715591368e-05 1.7296717087032077e-04 0.0000000000000000e+00  5.3411245730888106e-05 1.7296717086771868e-04 0.0000000000000000e+00  5.3411245723637626e-05 1.7296717087240244e-04 0.0000000000000000e+00  5.3411245722311321e-05 1.7296717086901972e-04 0.0000000000000000e+00  5.3411245723549209e-05 1.7296717087951578e-04 0.0000000000000000e+00  5.3411245728854434e-05 1.7296717088185668e-04 0.0000000000000000e+00  5.3411245719658705e-05 1.7296717086711153e-04 0.0000000000000000e+00  5.3411245729208114e-05 1.7296717087439737e-04 0.0000000000000000e+00  5.3411245725317617e-05 -3.5049908085007576e-04 0.0000000000000000e+00  2.1221100349684639e-05 2.9492784498034996e-04 0.0000000000000000e+00  2.1221100328050154e-05 2.9492784497237023e-04 0.0000000000000000e+00  2.1221100334948106e-05 2.9492784499058489e-04 0.0000000000000000e+00  2.1221100327841123e-05 2.9492784498503366e-04 0.0000000000000000e+00  2.1221100324287634e-05 2.9492784498260505e-04 0.0000000000000000e+00  2.1221100321465747e-05 2.9492784498520735e-04 0.0000000000000000e+00  2.1221100322824432e-05 2.9492784497635977e-04 0.0000000000000000e+00  2.1221100324810206e-05 2.9492784496786012e-04 0.0000000000000000e+00  2.1221100339233195e-05 2.9492784496768664e-04 0.0000000000000000e+00  2.1221100339546736e-05 2.9492784495641045e-04 0.0000000000000000e+00  2.1221100351774927e-05 2.9492784499388097e-04 0.0000000000000000e+00  2.1221100351043324e-05 2.9492784498381957e-04 0.0000000000000000e+00  2.1221100349475605e-05 2.9492784498624770e-04 0.0000000000000000e+00  2.1221100349475605e-05 2.9492784500619702e-04 0.0000000000000000e+00  2.1221100326377921e-05 2.9492784494912548e-04 0.0000000000000000e+00  2.1221100343936342e-05 2.9492784500411535e-04 0.0000000000000000e+00  2.1221100334321017e-05 2.9492784499249270e-04 0.0000000000000000e+00  2.1221100323974089e-05 2.9492784495311535e-04 0.0000000000000000e+00  2.1221100332544270e-05 2.9492784498659464e-04 0.0000000000000000e+00  2.1221100331917185e-05 2.9492784499440090e-04 0.0000000000000000e+00  2.1221100316971624e-05 2.9492784496144202e-04 0.0000000000000000e+00  2.1221100334948102e-05 2.9492784498815589e-04 0.0000000000000000e+00  2.1221100333902959e-05 2.9492784500827869e-04 0.0000000000000000e+00  2.1221100322615401e-05 2.9492784497427897e-04 0.0000000000000000e+00  2.1221100326064377e-05 2.9492784498624770e-04 0.0000000000000000e+00  2.1221100321674771e-05 2.9492784495623698e-04 0.0000000000000000e+00  2.122110034