<?xml version="1.0"?>
<VTKFile type="UnstructuredGrid"  version="0.1"  >
<UnstructuredGrid>
<Piece  NumberOfPoints="2601" NumberOfCells="5000">
<Points>
<DataArray  type="Float64"  NumberOfComponents="3"  format="ascii">0 0 0  0.02 0 0  0.04 0 0  0.06 0 0  0.08 0 0  0.1 0 0  0.12 0 0  0.14 0 0  0.16 0 0  0.18 0 0  0.2 0 0  0.22 0 0  0.24 0 0  0.26 0 0  0.28 0 0  0.3 0 0  0.32 0 0  0.34 0 0  0.36 0 0  0.38 0 0  0.4 0 0  0.42 0 0  0.44 0 0  0.46 0 0  0.48 0 0  0.5 0 0  0.52 0 0  0.54 0 0  0.5600000000000001 0 0  0.58 0 0  0.6 0 0  0.62 0 0  0.64 0 0  0.66 0 0  0.68 0 0  0.7 0 0  0.72 0 0  0.74 0 0  0.76 0 0  0.78 0 0  0.8 0 0  0.82 0 0  0.84 0 0  0.86 0 0  0.88 0 0  0.9 0 0  0.92 0 0  0.9399999999999999 0 0  0.96 0 0  0.98 0 0  1 0 0  0 0.01313563088723984 0  0.02 0.01313563088723984 0  0.04 0.01313563088723984 0  0.06 0.01313563088723984 0  0.08 0.01313563088723984 0  0.1 0.01313563088723984 0  0.12 0.01313563088723984 0  0.14 0.01313563088723984 0  0.16 0.01313563088723984 0  0.18 0.01313563088723984 0  0.2 0.01313563088723984 0  0.22 0.01313563088723984 0  0.24 0.01313563088723984 0  0.26 0.01313563088723984 0  0.28 0.01313563088723984 0  0.3 0.01313563088723984 0  0.32 0.01313563088723984 0  0.34 0.01313563088723984 0  0.36 0.01313563088723984 0  0.38 0.01313563088723984 0  0.4 0.01313563088723984 0  0.42 0.01313563088723984 0  0.44 0.01313563088723984 0  0.46 0.01313563088723984 0  0.48 0.01313563088723984 0  0.5 0.01313563088723984 0  0.52 0.01313563088723984 0  0.54 0.01313563088723984 0  0.5600000000000001 0.01313563088723984 0  0.58 0.01313563088723984 0  0.6 0.01313563088723984 0  0.62 0.01313563088723984 0  0.64 0.01313563088723984 0  0.66 0.01313563088723984 0  0.68 0.01313563088723984 0  0.7 0.01313563088723984 0  0.72 0.01313563088723984 0  0.74 0.01313563088723984 0  0.76 0.01313563088723984 0  0.78 0.01313563088723984 0  0.8 0.01313563088723984 0  0.82 0.01313563088723984 0  0.84 0.01313563088723984 0  0.86 0.01313563088723984 0  0.88 0.01313563088723984 0  0.9 0.01313563088723984 0  0.92 0.01313563088723984 0  0.9399999999999999 0.01313563088723984 0  0.96 0.01313563088723984 0  0.98 0.01313563088723984 0  1 0.01313563088723984 0  0 0.02664639863733726 0  0.02 0.02664639863733726 0  0.04 0.02664639863733726 0  0.06 0.02664639863733726 0  0.08 0.02664639863733726 0  0.1 0.02664639863733726 0  0.12 0.02664639863733726 0  0.14 0.02664639863733726 0  0.16 0.02664639863733726 0  0.18 0.02664639863733726 0  0.2 0.02664639863733726 0  0.22 0.02664639863733726 0  0.24 0.02664639863733726 0  0.26 0.02664639863733726 0  0.28 0.02664639863733726 0  0.3 0.02664639863733726 0  0.32 0.02664639863733726 0  0.34 0.02664639863733726 0  0.36 0.02664639863733726 0  0.38 0.02664639863733726 0  0.4 0.02664639863733726 0  0.42 0.02664639863733726 0  0.44 0.02664639863733726 0  0.46 0.02664639863733726 0  0.48 0.02664639863733726 0  0.5 0.02664639863733726 0  0.52 0.02664639863733726 0  0.54 0.02664639863733726 0  0.5600000000000001 0.02664639863733726 0  0.58 0.02664639863733726 0  0.6 0.02664639863733726 0  0.62 0.02664639863733726 0  0.64 0.02664639863733726 0  0.66 0.02664639863733726 0  0.68 0.02664639863733726 0  0.7 0.02664639863733726 0  0.72 0.02664639863733726 0  0.74 0.02664639863733726 0  0.76 0.02664639863733726 0  0.78 0.02664639863733726 0  0.8 0.02664639863733726 0  0.82 0.02664639863733726 0  0.84 0.02664639863733726 0  0.86 0.02664639863733726 0  0.88 0.02664639863733726 0  0.9 0.02664639863733726 0  0.92 0.02664639863733726 0  0.9399999999999999 0.02664639863733726 0  0.96 0.02664639863733726 0  0.98 0.02664639863733726 0  1 0.02664639863733726 0  0 0.04101652939099896 0  0.02 0.04101652939099896 0  0.04 0.04101652939099896 0  0.06 0.04101652939099896 0  0.08 0.04101652939099896 0  0.1 0.04101652939099896 0  0.12 0.04101652939099896 0  0.14 0.04101652939099896 0  0.16 0.04101652939099896 0  0.18 0.04101652939099896 0  0.2 0.04101652939099896 0  0.22 0.04101652939099896 0  0.24 0.04101652939099896 0  0.26 0.04101652939099896 0  0.28 0.04101652939099896 0  0.3 0.04101652939099896 0  0.32 0.04101652939099896 0  0.34 0.04101652939099896 0  0.36 0.04101652939099896 0  0.38 0.04101652939099896 0  0.4 0.04101652939099896 0  0.42 0.04101652939099896 0  0.44 0.04101652939099896 0  0.46 0.04101652939099896 0  0.48 0.04101652939099896 0  0.5 0.04101652939099896 0  0.52 0.04101652939099896 0  0.54 0.04101652939099896 0  0.5600000000000001 0.04101652939099896 0  0.58 0.04101652939099896 0  0.6 0.04101652939099896 0  0.62 0.04101652939099896 0  0.64 0.04101652939099896 0  0.66 0.04101652939099896 0  0.68 0.04101652939099896 0  0.7 0.04101652939099896 0  0.72 0.04101652939099896 0  0.74 0.04101652939099896 0  0.76 0.04101652939099896 0  0.78 0.04101652939099896 0  0.8 0.04101652939099896 0  0.82 0.04101652939099896 0  0.84 0.04101652939099896 0  0.86 0.04101652939099896 0  0.88 0.04101652939099896 0  0.9 0.04101652939099896 0  0.92 0.04101652939099896 0  0.9399999999999999 0.04101652939099896 0  0.96 0.04101652939099896 0  0.98 0.04101652939099896 0  1 0.04101652939099896 0  0 0.05705811164099547 0  0.02 0.05705811164099547 0  0.04 0.05705811164099547 0  0.06 0.05705811164099547 0  0.08 0.05705811164099547 0  0.1 0.05705811164099547 0  0.12 0.05705811164099547 0  0.14 0.05705811164099547 0  0.16 0.05705811164099547 0  0.18 0.05705811164099547 0  0.2 0.05705811164099547 0  0.22 0.05705811164099547 0  0.24 0.05705811164099547 0  0.26 0.05705811164099547 0  0.28 0.05705811164099547 0  0.3 0.05705811164099547 0  0.32 0.05705811164099547 0  0.34 0.05705811164099547 0  0.36 0.05705811164099547 0  0.38 0.05705811164099547 0  0.4 0.05705811164099547 0  0.42 0.05705811164099547 0  0.44 0.05705811164099547 0  0.46 0.05705811164099547 0  0.48 0.05705811164099547 0  0.5 0.05705811164099547 0  0.52 0.05705811164099547 0  0.54 0.05705811164099547 0  0.5600000000000001 0.05705811164099547 0  0.58 0.05705811164099547 0  0.6 0.05705811164099547 0  0.62 0.05705811164099547 0  0.64 0.05705811164099547 0  0.66 0.05705811164099547 0  0.68 0.05705811164099547 0  0.7 0.05705811164099547 0  0.72 0.05705811164099547 0  0.74 0.05705811164099547 0  0.76 0.05705811164099547 0  0.78 0.05705811164099547 0  0.8 0.05705811164099547 0  0.82 0.05705811164099547 0  0.84 0.05705811164099547 0  0.86 0.05705811164099547 0  0.88 0.05705811164099547 0  0.9 0.05705811164099547 0  0.92 0.05705811164099547 0  0.9399999999999999 0.05705811164099547 0  0.96 0.05705811164099547 0  0.98 0.05705811164099547 0  1 0.05705811164099547 0  0 0.07667714377545 0  0.02 0.07667714377545 0  0.04 0.07667714377545 0  0.06 0.07667714377545 0  0.08 0.07667714377545 0  0.1 0.07667714377545 0  0.12 0.07667714377545 0  0.14 0.07667714377545 0  0.16 0.07667714377545 0  0.18 0.07667714377545 0  0.2 0.07667714377545 0  0.22 0.07667714377545 0  0.24 0.07667714377545 0  0.26 0.07667714377545 0  0.28 0.07667714377545 0  0.3 0.07667714377545 0  0.32 0.07667714377545 0  0.34 0.07667714377545 0  0.36 0.07667714377545 0  0.38 0.07667714377545 0  0.4 0.07667714377545 0  0.42 0.07667714377545 0  0.44 0.07667714377545 0  0.46 0.07667714377545 0  0.48 0.07667714377545 0  0.5 0.07667714377545 0  0.52 0.07667714377545 0  0.54 0.07667714377545 0  0.5600000000000001 0.07667714377545 0  0.58 0.07667714377545 0  0.6 0.07667714377545 0  0.62 0.07667714377545 0  0.64 0.07667714377545 0  0.66 0.07667714377545 0  0.68 0.07667714377545 0  0.7 0.07667714377545 0  0.72 0.07667714377545 0  0.74 0.07667714377545 0  0.76 0.07667714377545 0  0.78 0.07667714377545 0  0.8 0.07667714377545 0  0.82 0.07667714377545 0  0.84 0.07667714377545 0  0.86 0.07667714377545 0  0.88 0.07667714377545 0  0.9 0.07667714377545 0  0.92 0.07667714377545 0  0.9399999999999999 0.07667714377545 0  0.96 0.07667714377545 0  0.98 0.07667714377545 0  1 0.07667714377545 0  0 0.1098730133816912 0  0.02 0.1098730133816912 0  0.04 0.1098730133816912 0  0.06 0.1098730133816912 0  0.08 0.1098730133816912 0  0.1 0.1098730133816912 0  0.12 0.1098730133816912 0  0.14 0.1098730133816912 0  0.16 0.1098730133816912 0  0.18 0.1098730133816912 0  0.2 0.1098730133816912 0  0.22 0.1098730133816912 0  0.24 0.1098730133816912 0  0.26 0.1098730133816912 0  0.28 0.1098730133816912 0  0.3 0.1098730133816912 0  0.32 0.1098730133816912 0  0.34 0.1098730133816912 0  0.36 0.1098730133816912 0  0.38 0.1098730133816912 0  0.4 0.1098730133816912 0  0.42 0.1098730133816912 0  0.44 0.1098730133816912 0  0.46 0.1098730133816912 0  0.48 0.1098730133816912 0  0.5 0.1098730133816912 0  0.52 0.1098730133816912 0  0.54 0.1098730133816912 0  0.5600000000000001 0.1098730133816912 0  0.58 0.1098730133816912 0  0.6 0.1098730133816912 0  0.62 0.1098730133816912 0  0.64 0.1098730133816912 0  0.66 0.1098730133816912 0  0.68 0.1098730133816912 0  0.7 0.1098730133816912 0  0.72 0.1098730133816912 0  0.74 0.1098730133816912 0  0.76 0.1098730133816912 0  0.78 0.1098730133816912 0  0.8 0.1098730133816912 0  0.82 0.1098730133816912 0  0.84 0.1098730133816912 0  0.86 0.1098730133816912 0  0.88 0.1098730133816912 0  0.9 0.1098730133816912 0  0.92 0.1098730133816912 0  0.9399999999999999 0.1098730133816912 0  0.96 0.1098730133816912 0  0.98 0.1098730133816912 0  1 0.1098730133816912 0  0 0.1603283563168221 0  0.02 0.1603283563168221 0  0.04 0.1603283563168221 0  0.06 0.1603283563168221 0  0.08 0.1603283563168221 0  0.1 0.1603283563168221 0  0.12 0.1603283563168221 0  0.14 0.1603283563168221 0  0.16 0.1603283563168221 0  0.18 0.1603283563168221 0  0.2 0.1603283563168221 0  0.22 0.1603283563168221 0  0.24 0.1603283563168221 0  0.26 0.1603283563168221 0  0.28 0.1603283563168221 0  0.3 0.1603283563168221 0  0.32 0.1603283563168221 0  0.34 0.1603283563168221 0  0.36 0.1603283563168221 0  0.38 0.1603283563168221 0  0.4 0.1603283563168221 0  0.42 0.1603283563168221 0  0.44 0.1603283563168221 0  0.46 0.1603283563168221 0  0.48 0.1603283563168221 0  0.5 0.1603283563168221 0  0.52 0.1603283563168221 0  0.54 0.1603283563168221 0  0.5600000000000001 0.1603283563168221 0  0.58 0.1603283563168221 0 
[...]
<PointData  Vectors="u_paraw"> 
<DataArray  type="Float64"  Name="u_paraw"  NumberOfComponents="3" format="ascii">9.0431679259227531e-06 1.8471896132154532e-05 0.0000000000000000e+00  9.0431679333842799e-06 1.8471896131081172e-05 0.0000000000000000e+00  9.0431679220929394e-06 1.8471896130257178e-05 0.0000000000000000e+00  9.0431679277551192e-06 1.8471896106404727e-05 0.0000000000000000e+00  9.0431679336484051e-06 1.8471896119946412e-05 0.0000000000000000e+00  9.0431679265170314e-06 1.8471896133173689e-05 0.0000000000000000e+00  9.0431679044791112e-06 1.8471896114200127e-05 0.0000000000000000e+00  9.0431679272763914e-06 1.8471896130875180e-05 0.0000000000000000e+00  9.0431679236281663e-06 1.8471896127037104e-05 0.0000000000000000e+00  9.0431679188409021e-06 1.8471896120661972e-05 0.0000000000000000e+00  9.0431679406642215e-06 1.8471896125703536e-05 0.0000000000000000e+00  9.0431679195837534e-06 1.8471896134680730e-05 0.0000000000000000e+00  9.0431679279862270e-06 1.8471896103705050e-05 0.0000000000000000e+00  9.0431679305614444e-06 1.8471896126364875e-05 0.0000000000000000e+00  9.0431679286960627e-06 1.8471896122320855e-05 0.0000000000000000e+00  9.0431679199469255e-06 1.8471896120889654e-05 0.0000000000000000e+00  9.0431679365042546e-06 1.8471896123155637e-05 0.0000000000000000e+00  9.0431679326084113e-06 1.8471896102826900e-05 0.0000000000000000e+00  9.0431679293563740e-06 1.8471896106242083e-05 0.0000000000000000e+00  9.0431679464419518e-06 1.8471896130040321e-05 0.0000000000000000e+00  9.0431679288776479e-06 1.8471896108280437e-05 0.0000000000000000e+00  9.0431679271443288e-06 1.8471896107738282e-05 0.0000000000000000e+00  9.0431679304128731e-06 1.8471896109483848e-05 0.0000000000000000e+00  9.0431679278871801e-06 1.8471896115978273e-05 0.0000000000000000e+00  9.0431679318985757e-06 1.8471896110882468e-05 0.0000000000000000e+00  9.0431679281678123e-06 1.8471896132859246e-05 0.0000000000000000e+00  9.0431679238757828e-06 1.8471896122093119e-05 0.0000000000000000e+00  9.0431679247837123e-06 1.8471896116899790e-05 0.0000000000000000e+00  9.0431679176358334e-06 1.8471896109505633e-05 0.0000000000000000e+00  9.0431679217958002e-06 1.8471896101493278e-05 0.0000000000000000e+00  9.0431679334998338e-06 1.8471896113679710e-05 0.0000000000000000e+00  9.0431679147469665e-06 1.8471896119621138e-05 0.0000000000000000e+00  9.0431679259887827e-06 1.8471896123470056e-05 0.0000000000000000e+00  9.0431679345068086e-06 1.8471896124380785e-05 0.0000000000000000e+00  9.0431679375277381e-06 1.8471896117203469e-05 0.0000000000000000e+00  9.0431679264510001e-06 1.8471896106339661e-05 0.0000000000000000e+00  9.0431679274744836e-06 1.8471896114633808e-05 0.0000000000000000e+00  9.0431679251138689e-06 1.8471896110372893e-05 0.0000000000000000e+00  9.0431679305614444e-06 1.8471896116607056e-05 0.0000000000000000e+00  9.0431679187088395e-06 1.8471896108616486e-05 0.0000000000000000e+00  9.0431679247341880e-06 1.8471896095790476e-05 0.0000000000000000e+00  9.0431679321957165e-06 1.8471896126787714e-05 0.0000000000000000e+00  9.0431679201780351e-06 1.8471896096657736e-05 0.0000000000000000e+00  9.0431679381880494e-06 1.8471896109158587e-05 0.0000000000000000e+00  9.0431679247837123e-06 1.8471896111381201e-05 0.0000000000000000e+00  9.0431679344077634e-06 1.8471896118634514e-05 0.0000000000000000e+00  9.0431679384356676e-06 1.8471896128197279e-05 0.0000000000000000e+00  9.0431679209539020e-06 1.8471896123741106e-05 0.0000000000000000e+00  9.0431679367518712e-06 1.8471896111782356e-05 0.0000000000000000e+00  9.0431679308585852e-06 1.8471896111326991e-05 0.0000000000000000e+00  9.0431679259227514e-06 3.0369440032624468e-15 0.0000000000000000e+00  -1.5687952423204422e-05 -1.4158410560490776e-04 0.0000000000000000e+00  -1.5687952418293291e-05 -1.4158410560343324e-04 0.0000000000000000e+00  -1.5687952429142719e-05 -1.4158410560857242e-04 0.0000000000000000e+00  -1.5687952419384655e-05 -1.4158410560185031e-04 0.0000000000000000e+00  -1.5687952422016766e-05 -1.4158410559968190e-04 0.0000000000000000e+00  -1.5687952424969865e-05 -1.4158410560783521e-04 0.0000000000000000e+00  -1.5687952433540273e-05 -1.4158410558940359e-04 0.0000000000000000e+00  -1.5687952412034005e-05 -1.4158410561195518e-04 0.0000000000000000e+00  -1.5687952418903171e-05 -1.4158410558658485e-04 0.0000000000000000e+00  -1.5687952428147658e-05 -1.4158410561332109e-04 0.0000000000000000e+00  -1.5687952429624206e-05 -1.4158410562021680e-04 0.0000000000000000e+00  -1.5687952429174821e-05 -1.4158410560247925e-04 0.0000000000000000e+00  -1.5687952429174821e-05 -1.4158410562808792e-04 0.0000000000000000e+00  -1.5687952420989600e-05 -1.4158410562897697e-04 0.0000000000000000e+00  -1.5687952434471142e-05 -1.4158410561097959e-04 0.0000000000000000e+00  -1.5687952434631638e-05 -1.4158410561453539e-04 0.0000000000000000e+00  -1.5687952415275997e-05 -1.4158410560623040e-04 0.0000000000000000e+00  -1.5687952419545151e-05 -1.4158410561097959e-04 0.0000000000000000e+00  -1.5687952404394466e-05 -1.4158410560584009e-04 0.0000000000000000e+00  -1.5687952390912927e-05 -1.4158410560891922e-04 0.0000000000000000e+00  -1.5687952435819297e-05 -1.4158410561386357e-04 0.0000000000000000e+00  -1.5687952416784644e-05 -1.4158410563088516e-04 0.0000000000000000e+00  -1.5687952414377227e-05 -1.4158410560750976e-04 0.0000000000000000e+00  -1.5687952418421687e-05 -1.4158410561123980e-04 0.0000000000000000e+00  -1.5687952418164897e-05 -1.4158410561900231e-04 0.0000000000000000e+00  -1.5687952411167335e-05 -1.4158410561295246e-04 0.0000000000000000e+00  -1.5687952428468647e-05 -1.4158410559861930e-04 0.0000000000000000e+00  -1.5687952430041492e-05 -1.4158410562186460e-04 0.0000000000000000e+00  -1.5687952421759976e-05 -1.4158410560410615e-04 0.0000000000000000e+00  -1.5687952424520480e-05 -1.4158410562336080e-04 0.0000000000000000e+00  -1.5687952409337699e-05 -1.4158410562730729e-04 0.0000000000000000e+00  -1.5687952413863644e-05 -1.4158410560774829e-04 0.0000000000000000e+00  -1.5687952424520480e-05 -1.4158410561074068e-04 0.0000000000000000e+00  -1.5687952416656250e-05 -1.4158410560902765e-04 0.0000000000000000e+00  -1.5687952414634017e-05 -1.4158410561364713e-04 0.0000000000000000e+00  -1.5687952425740238e-05 -1.4158410562596288e-04 0.0000000000000000e+00  -1.5687952411263632e-05 -1.4158410560881080e-04 0.0000000000000000e+00  -1.5687952422241457e-05 -1.4158410561950104e-04 0.0000000000000000e+00  -1.5687952415436489e-05 -1.4158410561594486e-04 0.0000000000000000e+00  -1.5687952434471142e-05 -1.4158410562964917e-04 0.0000000000000000e+00  -1.5687952411263632e-05 -1.4158410561509996e-04 0.0000000000000000e+00  -1.5687952409851279e-05 -1.4158410560206707e-04 0.0000000000000000e+00  -1.5687952425130361e-05 -1.4158410562058524e-04 0.0000000000000000e+00  -1.5687952410172271e-05 -1.4158410561308256e-04 0.0000000000000000e+00  -1.5687952413510556e-05 -1.4158410561368971e-04 0.0000000000000000e+00  -1.5687952414537719e-05 -1.4158410560610030e-04 0.0000000000000000e+00  -1.5687952413093271e-05 -1.4158410561930667e-04 0.0000000000000000e+00  -1.5687952413735247e-05 -1.4158410560189359e-04 0.0000000000000000e+00  -1.5687952414409326e-05 -1.4158410561650864e-04 0.0000000000000000e+00  -1.5687952421278492e-05 -1.4158410561958777e-04 0.0000000000000000e+00  -1.5687952423204425e-05 4.3990666697134635e-06 0.0000000000000000e+00  2.2312269319573745e-06 1.3305475402183679e-04 0.0000000000000000e+00  2.2312269122804536e-06 1.3305475400626765e-04 0.0000000000000000e+00  2.2312269141515718e-06 1.3305475400891313e-04 0.0000000000000000e+00  2.2312269180145257e-06 1.3305475400297165e-04 0.0000000000000000e+00  2.2312269096246728e-06 1.3305475402756135e-04 0.0000000000000000e+00  2.2312268992429847e-06 1.3305475399746401e-04 0.0000000000000000e+00  2.2312269066067402e-06 1.3305475401121150e-04 0.0000000000000000e+00  2.2312269142722893e-06 1.3305475401168874e-04 0.0000000000000000e+00  2.2312269131254748e-06 1.3305475400778561e-04 0.0000000000000000e+00  2.2312269041923943e-06 1.3305475400873952e-04 0.0000000000000000e+00  2.2312269032870144e-06 1.3305475400978055e-04 0.0000000000000000e+00  2.2312269081157065e-06 1.3305475398840008e-04 0.0000000000000000e+00  2.2312269149362343e-06 1.3305475401394369e-04 0.0000000000000000e+00  2.2312269104696941e-06 1.3305475398839989e-04 0.0000000000000000e+00  2.2312269203685133e-06 1.3305475398393333e-04 0.0000000000000000e+00  2.2312269261025854e-06 1.3305475401741314e-04 0.0000000000000000e+00  2.2312269192216989e-06 1.3305475400188737e-04 0.0000000000000000e+00  2.2312269100471835e-06 1.3305475400995418e-04 0.0000000000000000e+00  2.2312269212738928e-06 1.3305475401030077e-04 0.0000000000000000e+00  2.2312269187388295e-06 1.3305475400271136e-04 0.0000000000000000e+00  2.2312269133669093e-06 1.3305475401533182e-04 0.0000000000000000e+00  2.2312269124011710e-06 1.3305475401481106e-04 0.0000000000000000e+00  2.2312269113750740e-06 1.3305475399312701e-04 0.0000000000000000e+00  2.2312269208513826e-06 1.3305475399837490e-04 0.0000000000000000e+00  2.2312268957421827e-06 1.3305475400305830e-04 0.0000000000000000e+00  2.2312269185577538e-06 1.3305475399321375e-04 0.0000000000000000e+00  2.2312269192820576e-06 1.3305475401433401e-04 0.0000000000000000e+00  2.2312269010537442e-06 1.3305475400865279e-04 0.0000000000000000e+00  2.2312269052184913e-06 1.3305475400279883e-04 0.0000000000000000e+00  2.2312269011744617e-06 1.3305475399707351e-04 0.0000000000000000e+00  2.2312269118579430e-06 1.3305475400899973e-04 0.0000000000000000e+00  2.2312269183163189e-06 1.3305475399928528e-04 0.0000000000000000e+00  2.2312269127633229e-06 1.3305475400392567e-04 0.0000000000000000e+00  2.2312269134272680e-06 1.3305475400440271e-04 0.0000000000000000e+00  2.2312268969493559e-06 1.3305475399928601e-04 0.0000000000000000e+00  2.2312268939314232e-06 1.3305475400310167e-04 0.0000000000000000e+00  2.2312269151776692e-06 1.3305475399755056e-04 0.0000000000000000e+00  2.2312269145137237e-06 1.3305475399403774e-04 0.0000000000000000e+00  2.2312269196442095e-06 1.3305475399082850e-04 0.0000000000000000e+00  2.2312269183163189e-06 1.3305475401446411e-04 0.0000000000000000e+00  2.2312269130651161e-06 1.3305475401325054e-04 0.0000000000000000e+00  2.2312269103489766e-06 1.3305475399291017e-04 0.0000000000000000e+00  2.2312269101075422e-06 1.3305475401147171e-04 0.0000000000000000e+00  2.2312269180748844e-06 1.3305475402083922e-04 0.0000000000000000e+00  2.2312269156001794e-06 1.3305475401667588e-04 0.0000000000000000e+00  2.2312269017780480e-06 1.3305475400015264e-04 0.0000000000000000e+00  2.2312269025627105e-06 1.3305475398176530e-04 0.0000000000000000e+00  2.2312269151173105e-06 1.3305475401736977e-04 0.0000000000000000e+00  2.2312269136687029e-06 1.3305475401420390e-04 0.0000000000000000e+00  2.2312269120993778e-06 1.3305475400353535e-04 0.0000000000000000e+00  2.2312269319573745e-06 -2.2085906834454279e-04 0.0000000000000000e+00  3.4619128913788276e-05 3.1374316468053831e-04 0.0000000000000000e+00  3.4619128890862767e-05 3.1374316465963489e-04 0.0000000000000000e+00  3.4619128898648789e-05 3.1374316466327787e-04 0.0000000000000000e+00  3.4619128884915112e-05 3.1374316465798685e-04 0.0000000000000000e+00  3.4619128905569699e-05 3.1374316464185392e-04 0.0000000000000000e+00  3.4619128923520793e-05 3.1374316466310450e-04 0.0000000000000000e+00  3.4619128899189487e-05 3.1374316469337505e-04 0.0000000000000000e+00  3.4619128896810423e-05 3.1374316465694623e-04 0.0000000000000000e+00  3.4619128909030147e-05 3.1374316467828333e-04 0.0000000000000000e+00  3.4619128875723287e-05 3.1374316464315480e-04 0.0000000000000000e+00  3.4619128898756925e-05 3.1374316464532359e-04 0.0000000000000000e+00  3.4619128918546393e-05 3.1374316467368632e-04 0.0000000000000000e+00  3.4619128895404612e-05 3.1374316465200189e-04 0.0000000000000000e+00  3.4619128886212787e-05 3.1374316464020577e-04 0.0000000000000000e+00  3.4619128896486002e-05 3.1374316466249778e-04 0.0000000000000000e+00  3.4619128907408065e-05 3.1374316464922634e-04 0.0000000000000000e+00  3.4619128894755778e-05 3.1374316463448119e-04 0.0000000000000000e+00  3.4619128906110390e-05 3.1374316465113534e-04 0.0000000000000000e+00  3.4619128909678988e-05 3.1374316466666031e-04 0.0000000000000000e+00  3.4619128902974356e-05 3.1374316466622663e-04 0.0000000000000000e+00  3.4619128897783670e-05 3.1374316464358930e-04 0.0000000000000000e+00  3.4619128896918565e-05 3.1374316465703259e-04 0.0000000000000000e+00  3.4619128884050000e-05 3.1374316465078759e-04 0.0000000000000000e+00  3.4619128910327815e-05 3.1374316465260986e-04 0.0000000000000000e+00  3.4619128896918565e-05 3.1374316467429309e-04 0.0000000000000000e+00  3.4619128904704587e-05 3.1374316464237418e-04 0.0000000000000000e+00  3.4619128896486009e-05 3.1374316467758906e-04 0.0000000000000000e+00  3.4619128881887220e-05 3.1374316465980815e-04 0.0000000000000000e+00  3.4619128895080199e-05 3.1374316466484053e-04 0.0000000000000000e+00  3.4619128900054599e-05 3.1374316463448119e-04 0.0000000000000000e+00  3.4619128897783677e-05 3.1374316465338967e-04 0.0000000000000000e+00  3.4619128901352267e-05 3.1374316464350175e-04 0.0000000000000000e+00  3.4619128908813876e-05 3.1374316466622663e-04 0.0000000000000000e+00  3.4619128899189487e-05 3.1374316465564481e-04 0.0000000000000000e+00  3.4619128899189487e-05 3.1374316465963636e-04 0.0000000000000000e+00  3.4619128904055746e-05 3.1374316466561947e-04 0.0000000000000000e+00  3.4619128899946457e-05 3.1374316467038996e-04 0.0000000000000000e+00  3.4619128900270877e-05 3.1374316465469071e-04 0.0000000000000000e+00  3.4619128891187188e-05 3.1374316463621591e-04 0.0000000000000000e+00  3.4619128906542946e-05 3.1374316463595570e-04 0.0000000000000000e+00  3.4619128909678988e-05 3.1374316467715706e-04 0.0000000000000000e+00  3.4619128892917412e-05 3.1374316464462932e-04 0.0000000000000000e+00  3.4619128915302222e-05 3.1374316465677238e-04 0.0000000000000000e+00  3.4619128919844067e-05 3.1374316465954794e-04 0.0000000000000000e+00  3.4619128913680134e-05 3.1374316468392081e-04 0.0000000000000000e+00  3.4619128893566246e-05 3.1374316463543528e-04 0.0000000000000000e+00  3.4619128918113843e-05 3.1374316467516213e-04 0.0000000000000000e+00  3.4619128916599890e-05 3.1374316465842037e-04 0.0000000000000000e+00  3.4619128912274324e-05 3.1374316465677238e-04 0.0000000000000000e+00  3.4619128898324375e-05 3.1374316465642544e-04 0.0000000000000000e+00  3.4619128913788276e-05 4.7611146789010056e-04 0.0000000000000000e+00  -1.2275634649402969e-05 -4.2588942637290789e-04 0.0000000000000000e+00  -1.2275634655680820e-05 -4.2588942635885663e-04 0.0000000000000000e+00  -1.2275634670447035e-05 -4.2588942637698460e-04 0.0000000000000000e+00  -1.2275634676813306e-05 -4.2588942640335223e-04 0.0000000000000000e+00  -1.2275634653647149e-05 -4.2588942636770366e-04 0.0000000000000000e+00  -1.2275634679731180e-05 -4.2588942637577040e-04 0.0000000000000000e+00  -1.2275634686539555e-05 -4.2588942638635167e-04 0.0000000000000000e+00  -1.2275634680173282e-05 -4.2588942636622942e-04 0.0000000000000000e+00  -1.2275634709175187e-05 -4.2588942635955073e-04 0.0000000000000000e+00  -1.2275634698829996e-05 -4.2588942638322917e-04 0.0000000000000000e+00  -1.2275634664169182e-05 -4.2588942636033136e-04 0.0000000000000000e+00  -1.2275634707583619e-05 -4.2588942635989768e-04 0.0000000000000000e+00  -1.2275634713154107e-05 -4.2588942639658654e-04 0.0000000000000000e+00  -1.2275634693701609e-05 -4.2588942640144376e-04 0.0000000000000000e+00  -1.2275634683621679e-05 -4.2588942636518918e-04 0.0000000000000000e+00  -1.2275634690430053e-05 -4.2588942640265807e-04 0.0000000000000000e+00  -1.2275634674514374e-05 -4.2588942638791292e-04 0.0000000000000000e+00  -1.2275634672303863e-05 -4.2588942637672509e-04 0.0000000000000000e+00  -1.2275634663550238e-05 -4.2588942639155584e-04 0.0000000000000000e+00  -1.2275634662842876e-05 -4.2588942637906583e-04 0.0000000000000000e+00  -1.2275634685478509e-05 -4.2588942636362793e-04 0.0000000000000000e+00  -1.2275634674514374e-05 -4.2588942637958625e-04 0.0000000000000000e+00  -1.2275634692640563e-05 -4.2588942638669861e-04 0.0000000000000000e+00  -1.2275634665230228e-05 -4.2588942637342912e-04 0.0000000000000000e+00  -1.2275634684063782e-05 -4.2588942639728043e-04 0.0000000000000000e+00  -1.2275634684063782e-05 -4.2588942638010667e-04 0.0000000000000000e+00  -1.2275634682206952e-05 -4.2588942637438208e-04 0.0000000000000000e+00  -1.2275634661074466e-05 -4.2588942637793826e-04 0.0000000000000000e+00  -1.2275634656918706e-05 -4.2588942637100175e-04 0.0000000000000000e+00  -1.2275634665760750e-05 -4.2588942638626493e-04 0.0000000000000000e+00  -1.2275634648607185e-05 -4.2588942638383632e-04 0.0000000000000000e+00  -1.2275634670889135e-05 -4.2588942638999459e-04 0.0000000000000000e+00  -1.2275634664788125e-05 -4.2588942638999459e-04 0.0000000000000000e+00  -1.2275634670270193e-05 -4.2588942638513736e-04 0.0000000000000000e+00  -1.2275634676194362e-05 -4.2588942639121128e-04 0.0000000000000000e+00  -1.2275634663373398e-05 -4.2588942640916328e-04 0.0000000000000000e+00  -1.2275634649933491e-05 -4.2588942636605540e-04 0.0000000000000000e+00  -1.2275634673630169e-05 -4.2588942637837194e-04 0.0000000000000000e+00  -1.2275634670535453e-05 -4.2588942638626493e-04 0.0000000000000000e+00  -1.2275634670447033e-05 -4.2588942638938744e-04 0.0000000000000000e+00  -1.2275634674956476e-05 -4.2588942639311948e-04 0.0000000000000000e+00  -1.2275634663284978e-05 -4.2588942638288222e-04 0.0000000000000000e+00  -1.2275634662489194e-05 -4.2588942637906583e-04 0.0000000000000000e+00  -1.2275634662842876e-05 -4.2588942637837194e-04 0.0000000000000000e+00  -1.2275634664788125e-05 -4.2588942640092335e-04 0.0000000000000000e+00  -1.2275634658598694e-05 -4.2588942637377492e-04 0.0000000000000000e+00  -1.2275634660897626e-05 -4.2588942636996092e-04 0.0000000000000000e+00  -1.2275634670181773e-05 -4.2588942638418327e-04 0.0000000000000000e+00  -1.2275634657802910e-05 -4.2588942637299430e-04 0.0000000000000000e+00  -1.2275634670181773e-05 -4.2588942637603006e-04 0.0000000000000000e+00  -1.2275634649402969e-05 -1.5803537491007961e-05 0.0000000000000000e+00  1.6573364718236406e-04 6.5833704508480584e-04 0.0000000000000000e+00  1.6573364718915751e-04 6.5833704513615365e-04 0.0000000000000000e+00  1.6573364717233069e-04 6.5833704510250013e-04 0.0000000000000000e+00  1.6573364716804560e-04 6.5833704511568381e-04 0.0000000000000000e+00  1.6573364714662014e-04 6.5833704511603075e-04 0.0000000000000000e+00  1.6573364714306664e-04 6.5833704511342921e-04 0.0000000000000000e+00  1.6573364713773640e-04 6.5833704509902992e-04 0.0000000000000000e+00  1.6573364714850139e-04 6.5833704509781670e-04 0.0000000000000000e+00  1.6573364716031153e-04 6.5833704509035739e-04 0.0000000000000000e+00  1.6573364718570853e-04 6.5833704510943826e-04 0.0000000000000000e+00  1.6573364717849704e-04 6.5833704507856127e-04 0.0000000000000000e+00  1.6573364716929978e-04 6.5833704508359197e-04 0.0000000000000000e+00  1.6573364718727623e-04 6.5833704508220310e-04 0.0000000000000000e+00  1.6573364717870605e-04 6.5833704512140785e-04 0.0000000000000000e+00  1.6573364717734735e-04 6.5833704511741983e-04 0.0000000000000000e+00  1.6573364717473450e-04 6.5833704507578463e-04 0.0000000000000000e+00  1.6573364717703383e-04 6.5833704512574466e-04 0.0000000000000000e+00  1.6573364715811672e-04 6.5833704510163385e-04 0.0000000000000000e+00  1.6573364715759414e-04 6.5833704506364156e-04 0.0000000000000000e+00  1.6573364716752302e-04 6.5833704511568327e-04 0.0000000000000000e+00  1.6573364714829236e-04 6.5833704512279748e-04 0.0000000000000000e+00  1.6573364715550385e-04 6.5833704510284631e-04 0.0000000000000000e+00  1.6573364714912847e-04 6.5833704511481590e-04 0.0000000000000000e+00  1.6573364714912847e-04 6.5833704508792953e-04 0.0000000000000000e+00  1.6573364713773640e-04 6.5833704508081532e-04 0.0000000000000000e+00  1.6573364715822121e-04 6.5833704509833603e-04 0.0000000000000000e+00  1.6573364714