<?xml version="1.0"?>
<VTKFile type="UnstructuredGrid"  version="0.1"  >
<UnstructuredGrid>
<Piece  NumberOfPoints="2601" NumberOfCells="5000">
<Points>
<DataArray  type="Float64"  NumberOfComponents="3"  format="ascii">0 0 0  0.02 0 0  0.04 0 0  0.06 0 0  0.08 0 0  0.1 0 0  0.12 0 0  0.14 0 0  0.16 0 0  0.18 0 0  0.2 0 0  0.22 0 0  0.24 0 0  0.26 0 0  0.28 0 0  0.3 0 0  0.32 0 0  0.34 0 0  0.36 0 0  0.38 0 0  0.4 0 0  0.42 0 0  0.44 0 0  0.46 0 0  0.48 0 0  0.5 0 0  0.52 0 0  0.54 0 0  0.5600000000000001 0 0  0.58 0 0  0.6 0 0  0.62 0 0  0.64 0 0  0.66 0 0  0.68 0 0  0.7 0 0  0.72 0 0  0.74 0 0  0.76 0 0  0.78 0 0  0.8 0 0  0.82 0 0  0.84 0 0  0.86 0 0  0.88 0 0  0.9 0 0  0.92 0 0  0.9399999999999999 0 0  0.96 0 0  0.98 0 0  1 0 0  0 0.01313563088723984 0  0.02 0.01313563088723984 0  0.04 0.01313563088723984 0  0.06 0.01313563088723984 0  0.08 0.01313563088723984 0  0.1 0.01313563088723984 0  0.12 0.01313563088723984 0  0.14 0.01313563088723984 0  0.16 0.01313563088723984 0  0.18 0.01313563088723984 0  0.2 0.01313563088723984 0  0.22 0.01313563088723984 0  0.24 0.01313563088723984 0  0.26 0.01313563088723984 0  0.28 0.01313563088723984 0  0.3 0.01313563088723984 0  0.32 0.01313563088723984 0  0.34 0.01313563088723984 0  0.36 0.01313563088723984 0  0.38 0.01313563088723984 0  0.4 0.01313563088723984 0  0.42 0.01313563088723984 0  0.44 0.01313563088723984 0  0.46 0.01313563088723984 0  0.48 0.01313563088723984 0  0.5 0.01313563088723984 0  0.52 0.01313563088723984 0  0.54 0.01313563088723984 0  0.5600000000000001 0.01313563088723984 0  0.58 0.01313563088723984 0  0.6 0.01313563088723984 0  0.62 0.01313563088723984 0  0.64 0.01313563088723984 0  0.66 0.01313563088723984 0  0.68 0.01313563088723984 0  0.7 0.01313563088723984 0  0.72 0.01313563088723984 0  0.74 0.01313563088723984 0  0.76 0.01313563088723984 0  0.78 0.01313563088723984 0  0.8 0.01313563088723984 0  0.82 0.01313563088723984 0  0.84 0.01313563088723984 0  0.86 0.01313563088723984 0  0.88 0.01313563088723984 0  0.9 0.01313563088723984 0  0.92 0.01313563088723984 0  0.9399999999999999 0.01313563088723984 0  0.96 0.01313563088723984 0  0.98 0.01313563088723984 0  1 0.01313563088723984 0  0 0.02664639863733726 0  0.02 0.02664639863733726 0  0.04 0.02664639863733726 0  0.06 0.02664639863733726 0  0.08 0.02664639863733726 0  0.1 0.02664639863733726 0  0.12 0.02664639863733726 0  0.14 0.02664639863733726 0  0.16 0.02664639863733726 0  0.18 0.02664639863733726 0  0.2 0.02664639863733726 0  0.22 0.02664639863733726 0  0.24 0.02664639863733726 0  0.26 0.02664639863733726 0  0.28 0.02664639863733726 0  0.3 0.02664639863733726 0  0.32 0.02664639863733726 0  0.34 0.02664639863733726 0  0.36 0.02664639863733726 0  0.38 0.02664639863733726 0  0.4 0.02664639863733726 0  0.42 0.02664639863733726 0  0.44 0.02664639863733726 0  0.46 0.02664639863733726 0  0.48 0.02664639863733726 0  0.5 0.02664639863733726 0  0.52 0.02664639863733726 0  0.54 0.02664639863733726 0  0.5600000000000001 0.02664639863733726 0  0.58 0.02664639863733726 0  0.6 0.02664639863733726 0  0.62 0.02664639863733726 0  0.64 0.02664639863733726 0  0.66 0.02664639863733726 0  0.68 0.02664639863733726 0  0.7 0.02664639863733726 0  0.72 0.02664639863733726 0  0.74 0.02664639863733726 0  0.76 0.02664639863733726 0  0.78 0.02664639863733726 0  0.8 0.02664639863733726 0  0.82 0.02664639863733726 0  0.84 0.02664639863733726 0  0.86 0.02664639863733726 0  0.88 0.02664639863733726 0  0.9 0.02664639863733726 0  0.92 0.02664639863733726 0  0.9399999999999999 0.02664639863733726 0  0.96 0.02664639863733726 0  0.98 0.02664639863733726 0  1 0.02664639863733726 0  0 0.04101652939099896 0  0.02 0.04101652939099896 0  0.04 0.04101652939099896 0  0.06 0.04101652939099896 0  0.08 0.04101652939099896 0  0.1 0.04101652939099896 0  0.12 0.04101652939099896 0  0.14 0.04101652939099896 0  0.16 0.04101652939099896 0  0.18 0.04101652939099896 0  0.2 0.04101652939099896 0  0.22 0.04101652939099896 0  0.24 0.04101652939099896 0  0.26 0.04101652939099896 0  0.28 0.04101652939099896 0  0.3 0.04101652939099896 0  0.32 0.04101652939099896 0  0.34 0.04101652939099896 0  0.36 0.04101652939099896 0  0.38 0.04101652939099896 0  0.4 0.04101652939099896 0  0.42 0.04101652939099896 0  0.44 0.04101652939099896 0  0.46 0.04101652939099896 0  0.48 0.04101652939099896 0  0.5 0.04101652939099896 0  0.52 0.04101652939099896 0  0.54 0.04101652939099896 0  0.5600000000000001 0.04101652939099896 0  0.58 0.04101652939099896 0  0.6 0.04101652939099896 0  0.62 0.04101652939099896 0  0.64 0.04101652939099896 0  0.66 0.04101652939099896 0  0.68 0.04101652939099896 0  0.7 0.04101652939099896 0  0.72 0.04101652939099896 0  0.74 0.04101652939099896 0  0.76 0.04101652939099896 0  0.78 0.04101652939099896 0  0.8 0.04101652939099896 0  0.82 0.04101652939099896 0  0.84 0.04101652939099896 0  0.86 0.04101652939099896 0  0.88 0.04101652939099896 0  0.9 0.04101652939099896 0  0.92 0.04101652939099896 0  0.9399999999999999 0.04101652939099896 0  0.96 0.04101652939099896 0  0.98 0.04101652939099896 0  1 0.04101652939099896 0  0 0.05705811164099547 0  0.02 0.05705811164099547 0  0.04 0.05705811164099547 0  0.06 0.05705811164099547 0  0.08 0.05705811164099547 0  0.1 0.05705811164099547 0  0.12 0.05705811164099547 0  0.14 0.05705811164099547 0  0.16 0.05705811164099547 0  0.18 0.05705811164099547 0  0.2 0.05705811164099547 0  0.22 0.05705811164099547 0  0.24 0.05705811164099547 0  0.26 0.05705811164099547 0  0.28 0.05705811164099547 0  0.3 0.05705811164099547 0  0.32 0.05705811164099547 0  0.34 0.05705811164099547 0  0.36 0.05705811164099547 0  0.38 0.05705811164099547 0  0.4 0.05705811164099547 0  0.42 0.05705811164099547 0  0.44 0.05705811164099547 0  0.46 0.05705811164099547 0  0.48 0.05705811164099547 0  0.5 0.05705811164099547 0  0.52 0.05705811164099547 0  0.54 0.05705811164099547 0  0.5600000000000001 0.05705811164099547 0  0.58 0.05705811164099547 0  0.6 0.05705811164099547 0  0.62 0.05705811164099547 0  0.64 0.05705811164099547 0  0.66 0.05705811164099547 0  0.68 0.05705811164099547 0  0.7 0.05705811164099547 0  0.72 0.05705811164099547 0  0.74 0.05705811164099547 0  0.76 0.05705811164099547 0  0.78 0.05705811164099547 0  0.8 0.05705811164099547 0  0.82 0.05705811164099547 0  0.84 0.05705811164099547 0  0.86 0.05705811164099547 0  0.88 0.05705811164099547 0  0.9 0.05705811164099547 0  0.92 0.05705811164099547 0  0.9399999999999999 0.05705811164099547 0  0.96 0.05705811164099547 0  0.98 0.05705811164099547 0  1 0.05705811164099547 0  0 0.07667714377545 0  0.02 0.07667714377545 0  0.04 0.07667714377545 0  0.06 0.07667714377545 0  0.08 0.07667714377545 0  0.1 0.07667714377545 0  0.12 0.07667714377545 0  0.14 0.07667714377545 0  0.16 0.07667714377545 0  0.18 0.07667714377545 0  0.2 0.07667714377545 0  0.22 0.07667714377545 0  0.24 0.07667714377545 0  0.26 0.07667714377545 0  0.28 0.07667714377545 0  0.3 0.07667714377545 0  0.32 0.07667714377545 0  0.34 0.07667714377545 0  0.36 0.07667714377545 0  0.38 0.07667714377545 0  0.4 0.07667714377545 0  0.42 0.07667714377545 0  0.44 0.07667714377545 0  0.46 0.07667714377545 0  0.48 0.07667714377545 0  0.5 0.07667714377545 0  0.52 0.07667714377545 0  0.54 0.07667714377545 0  0.5600000000000001 0.07667714377545 0  0.58 0.07667714377545 0  0.6 0.07667714377545 0  0.62 0.07667714377545 0  0.64 0.07667714377545 0  0.66 0.07667714377545 0  0.68 0.07667714377545 0  0.7 0.07667714377545 0  0.72 0.07667714377545 0  0.74 0.07667714377545 0  0.76 0.07667714377545 0  0.78 0.07667714377545 0  0.8 0.07667714377545 0  0.82 0.07667714377545 0  0.84 0.07667714377545 0  0.86 0.07667714377545 0  0.88 0.07667714377545 0  0.9 0.07667714377545 0  0.92 0.07667714377545 0  0.9399999999999999 0.07667714377545 0  0.96 0.07667714377545 0  0.98 0.07667714377545 0  1 0.07667714377545 0  0 0.1098730133816912 0  0.02 0.1098730133816912 0  0.04 0.1098730133816912 0  0.06 0.1098730133816912 0  0.08 0.1098730133816912 0  0.1 0.1098730133816912 0  0.12 0.1098730133816912 0  0.14 0.1098730133816912 0  0.16 0.1098730133816912 0  0.18 0.1098730133816912 0  0.2 0.1098730133816912 0  0.22 0.1098730133816912 0  0.24 0.1098730133816912 0  0.26 0.1098730133816912 0  0.28 0.1098730133816912 0  0.3 0.1098730133816912 0  0.32 0.1098730133816912 0  0.34 0.1098730133816912 0  0.36 0.1098730133816912 0  0.38 0.1098730133816912 0  0.4 0.1098730133816912 0  0.42 0.1098730133816912 0  0.44 0.1098730133816912 0  0.46 0.1098730133816912 0  0.48 0.1098730133816912 0  0.5 0.1098730133816912 0  0.52 0.1098730133816912 0  0.54 0.1098730133816912 0  0.5600000000000001 0.1098730133816912 0  0.58 0.1098730133816912 0  0.6 0.1098730133816912 0  0.62 0.1098730133816912 0  0.64 0.1098730133816912 0  0.66 0.1098730133816912 0  0.68 0.1098730133816912 0  0.7 0.1098730133816912 0  0.72 0.1098730133816912 0  0.74 0.1098730133816912 0  0.76 0.1098730133816912 0  0.78 0.1098730133816912 0  0.8 0.1098730133816912 0  0.82 0.1098730133816912 0  0.84 0.1098730133816912 0  0.86 0.1098730133816912 0  0.88 0.1098730133816912 0  0.9 0.1098730133816912 0  0.92 0.1098730133816912 0  0.9399999999999999 0.1098730133816912 0  0.96 0.1098730133816912 0  0.98 0.1098730133816912 0  1 0.1098730133816912 0  0 0.1603283563168221 0  0.02 0.1603283563168221 0  0.04 0.1603283563168221 0  0.06 0.1603283563168221 0  0.08 0.1603283563168221 0  0.1 0.1603283563168221 0  0.12 0.1603283563168221 0  0.14 0.1603283563168221 0  0.16 0.1603283563168221 0  0.18 0.1603283563168221 0  0.2 0.1603283563168221 0  0.22 0.1603283563168221 0  0.24 0.1603283563168221 0  0.26 0.1603283563168221 0  0.28 0.1603283563168221 0  0.3 0.1603283563168221 0  0.32 0.1603283563168221 0  0.34 0.1603283563168221 0  0.36 0.1603283563168221 0  0.38 0.1603283563168221 0  0.4 0.1603283563168221 0  0.42 0.1603283563168221 0  0.44 0.1603283563168221 0  0.46 0.1603283563168221 0  0.48 0.1603283563168221 0  0.5 0.1603283563168221 0  0.52 0.1603283563168221 0  0.54 0.1603283563168221 0  0.5600000000000001 0.1603283563168221 0  0.58 0.1603283563168221 0 
[...]
<PointData  Vectors="u_paraw"> 
<DataArray  type="Float64"  Name="u_paraw"  NumberOfComponents="3" format="ascii">3.8164533207063032e-05 2.4529115255291119e-04 0.0000000000000000e+00  3.8164533211767758e-05 2.4529115254588556e-04 0.0000000000000000e+00  3.8164533213170912e-05 2.4529115253320039e-04 0.0000000000000000e+00  3.8164533209786819e-05 2.4529115253357981e-04 0.0000000000000000e+00  3.8164533214722656e-05 2.4529115254611319e-04 0.0000000000000000e+00  3.8164533207871908e-05 2.4529115254727344e-04 0.0000000000000000e+00  3.8164533207541748e-05 2.4529115255097025e-04 0.0000000000000000e+00  3.8164533194467571e-05 2.4529115253410039e-04 0.0000000000000000e+00  3.8164533209159513e-05 2.4529115255415813e-04 0.0000000000000000e+00  3.8164533192882820e-05 2.4529115252924284e-04 0.0000000000000000e+00  3.8164533213005836e-05 2.4529115253632300e-04 0.0000000000000000e+00  3.8164533208614756e-05 2.4529115254483399e-04 0.0000000000000000e+00  3.8164533211965842e-05 2.4529115253589984e-04 0.0000000000000000e+00  3.8164533214673122e-05 2.4529115254051854e-04 0.0000000000000000e+00  3.8164533223554323e-05 2.4529115255967710e-04 0.0000000000000000e+00  3.8164533208482693e-05 2.4529115255060162e-04 0.0000000000000000e+00  3.8164533215663588e-05 2.4529115254112569e-04 0.0000000000000000e+00  3.8164533224726373e-05 2.4529115255761711e-04 0.0000000000000000e+00  3.8164533218288333e-05 2.4529115253752614e-04 0.0000000000000000e+00  3.8164533212576634e-05 2.4529115254201474e-04 0.0000000000000000e+00  3.8164533202259251e-05 2.4529115252235886e-04 0.0000000000000000e+00  3.8164533215465497e-05 2.4529115254335915e-04 0.0000000000000000e+00  3.8164533213088370e-05 2.4529115253232197e-04 0.0000000000000000e+00  3.8164533210414111e-05 2.4529115254217807e-04 0.0000000000000000e+00  3.8164533215085816e-05 2.4529115254627565e-04 0.0000000000000000e+00  3.8164533205841448e-05 2.4529115255197856e-04 0.0000000000000000e+00  3.8164533210513153e-05 2.4529115254281705e-04 0.0000000000000000e+00  3.8164533207046518e-05 2.4529115253449038e-04 0.0000000000000000e+00  3.8164533209935382e-05 2.4529115254262325e-04 0.0000000000000000e+00  3.8164533217165804e-05 2.4529115254435662e-04 0.0000000000000000e+00  3.8164533210265542e-05 2.4529115253544447e-04 0.0000000000000000e+00  3.8164533206435726e-05 2.4529115254731649e-04 0.0000000000000000e+00  3.8164533205511288e-05 2.4529115254239421e-04 0.0000000000000000e+00  3.8164533210100458e-05 2.4529115254734901e-04 0.0000000000000000e+00  3.8164533207640797e-05 2.4529115253677940e-04 0.0000000000000000e+00  3.8164533220516883e-05 2.4529115255919934e-04 0.0000000000000000e+00  3.8164533203447814e-05 2.4529115254953910e-04 0.0000000000000000e+00  3.8164533210199507e-05 2.4529115256504319e-04 0.0000000000000000e+00  3.8164533217842624e-05 2.4529115253285323e-04 0.0000000000000000e+00  3.8164533209770305e-05 2.4529115253428438e-04 0.0000000000000000e+00  3.8164533207723338e-05 2.4529115254217872e-04 0.0000000000000000e+00  3.8164533209605229e-05 2.4529115255717189e-04 0.0000000000000000e+00  3.8164533209786812e-05 2.4529115255133888e-04 0.0000000000000000e+00  3.8164533212857266e-05 2.4529115254161358e-04 0.0000000000000000e+00  3.8164533213385516e-05 2.4529115254520229e-04 0.0000000000000000e+00  3.8164533212428064e-05 2.4529115255565400e-04 0.0000000000000000e+00  3.8164533217066755e-05 2.4529115255232686e-04 0.0000000000000000e+00  3.8164533209109992e-05 2.4529115254781522e-04 0.0000000000000000e+00  3.8164533206402712e-05 2.4529115255152319e-04 0.0000000000000000e+00  3.8164533221738461e-05 2.4529115253553121e-04 0.0000000000000000e+00  3.8164533207063025e-05 -2.6799688701572037e-15 0.0000000000000000e+00  9.2428067589372606e-06 -2.0571447853191206e-04 0.0000000000000000e+00  9.2428067615693714e-06 -2.0571447854899908e-04 0.0000000000000000e+00  9.2428067562088540e-06 -2.0571447853540324e-04 0.0000000000000000e+00  9.2428067627249344e-06 -2.0571447853776675e-04 0.0000000000000000e+00  9.2428067599002303e-06 -2.0571447855077717e-04 0.0000000000000000e+00  9.2428067511051298e-06 -2.0571447855229519e-04 0.0000000000000000e+00  9.2428067708780568e-06 -2.0571447853238894e-04 0.0000000000000000e+00  9.2428067447816460e-06 -2.0571447854696092e-04 0.0000000000000000e+00  9.2428067640088907e-06 -2.0571447852354215e-04 0.0000000000000000e+00  9.2428067516829096e-06 -2.0571447854789303e-04 0.0000000000000000e+00  9.2428067607348017e-06 -2.0571447853603216e-04 0.0000000000000000e+00  9.2428067547323061e-06 -2.0571447853273619e-04 0.0000000000000000e+00  9.2428067633027142e-06 -2.0571447855342246e-04 0.0000000000000000e+00  9.2428067640088907e-06 -2.0571447854086740e-04 0.0000000000000000e+00  9.2428067676681662e-06 -2.0571447853538191e-04 0.0000000000000000e+00  9.2428067494038878e-06 -2.0571447856270324e-04 0.0000000000000000e+00  9.2428067678928586e-06 -2.0571447853859058e-04 0.0000000000000000e+00  9.2428067657101326e-06 -2.0571447855301104e-04 0.0000000000000000e+00  9.2428067671866822e-06 -2.0571447855168774e-04 0.0000000000000000e+00  9.2428067717768249e-06 -2.0571447853809185e-04 0.0000000000000000e+00  9.2428067512014273e-06 -2.0571447855262072e-04 0.0000000000000000e+00  9.2428067640409898e-06 -2.0571447855906032e-04 0.0000000000000000e+00  9.2428067605422085e-06 -2.0571447854845682e-04 0.0000000000000000e+00  9.2428067708459577e-06 -2.0571447853913325e-04 0.0000000000000000e+00  9.2428067722583089e-06 -2.0571447853956636e-04 0.0000000000000000e+00  9.2428067686632317e-06 -2.0571447853648723e-04 0.0000000000000000e+00  9.2428067590656589e-06 -2.0571447852388880e-04 0.0000000000000000e+00  9.2428067578138018e-06 -2.0571447853702933e-04 0.0000000000000000e+00  9.2428067739595508e-06 -2.0571447853798459e-04 0.0000000000000000e+00  9.2428067665447040e-06 -2.0571447854997470e-04 0.0000000000000000e+00  9.2428067629817260e-06 -2.0571447855509214e-04 0.0000000000000000e+00  9.2428067629175277e-06 -2.0571447854136614e-04 0.0000000000000000e+00  9.2428067502384592e-06 -2.0571447854815324e-04 0.0000000000000000e+00  9.2428067631743193e-06 -2.0571447855702202e-04 0.0000000000000000e+00  9.2428067737669576e-06 -2.0571447852629689e-04 0.0000000000000000e+00  9.2428067689842199e-06 -2.0571447853830869e-04 0.0000000000000000e+00  9.2428067664805057e-06 -2.0571447853154326e-04 0.0000000000000000e+00  9.2428067640409898e-06 -2.0571447852811719e-04 0.0000000000000000e+00  9.2428067538656356e-06 -2.0571447853733290e-04 0.0000000000000000e+00  9.2428067598360320e-06 -2.0571447856007947e-04 0.0000000000000000e+00  9.2428067756607928e-06 -2.0571447853468862e-04 0.0000000000000000e+00  9.2428067739274517e-06 -2.0571447853358156e-04 0.0000000000000000e+00  9.2428067681175511e-06 -2.0571447852898455e-04 0.0000000000000000e+00  9.2428067644903730e-06 -2.0571447853481756e-04 0.0000000000000000e+00  9.2428067585841749e-06 -2.0571447854715578e-04 0.0000000000000000e+00  9.2428067725792988e-06 -2.0571447853455735e-04 0.0000000000000000e+00  9.2428067586483732e-06 -2.0571447853917721e-04 0.0000000000000000e+00  9.2428067614088790e-06 -2.0571447855266352e-04 0.0000000000000000e+00  9.2428067748904197e-06 -2.0571447852753172e-04 0.0000000000000000e+00  9.2428067632064168e-06 -2.0571447852479953e-04 0.0000000000000000e+00  9.2428067589372623e-06 3.3829531162665543e-04 0.0000000000000000e+00  -8.8330062163796900e-05 -8.2557044785405882e-04 0.0000000000000000e+00  -8.8330062180636958e-05 -8.2557044789014107e-04 0.0000000000000000e+00  -8.8330062154924168e-05 -8.2557044788276860e-04 0.0000000000000000e+00  -8.8330062160658243e-05 -8.2557044787253341e-04 0.0000000000000000e+00  -8.8330062177558664e-05 -8.2557044787192626e-04 0.0000000000000000e+00  -8.8330062164702276e-05 -8.2557044787478920e-04 0.0000000000000000e+00  -8.8330062150940498e-05 -8.2557044787782388e-04 0.0000000000000000e+00  -8.8330062179550506e-05 -8.2557044788025358e-04 0.0000000000000000e+00  -8.8330062163615824e-05 -8.2557044789300380e-04 0.0000000000000000e+00  -8.8330062177981178e-05 -8.2557044786637471e-04 0.0000000000000000e+00  -8.8330062171824603e-05 -8.2557044786351350e-04 0.0000000000000000e+00  -8.8330062178705479e-05 -8.2557044789174612e-04 0.0000000000000000e+00  -8.8330062150155834e-05 -8.2557044787981882e-04 0.0000000000000000e+00  -8.8330062159209640e-05 -8.2557044787942850e-04 0.0000000000000000e+00  -8.8330062150638710e-05 -8.2557044786776466e-04 0.0000000000000000e+00  -8.8330062167418419e-05 -8.2557044788532656e-04 0.0000000000000000e+00  -8.8330062155648483e-05 -8.2557044787726010e-04 0.0000000000000000e+00  -8.8330062169832761e-05 -8.2557044787938730e-04 0.0000000000000000e+00  -8.8330062164641913e-05 -8.2557044788151017e-04 0.0000000000000000e+00  -8.8330062156191709e-05 -8.2557044789204862e-04 0.0000000000000000e+00  -8.8330062175627199e-05 -8.2557044788129550e-04 0.0000000000000000e+00  -8.8330062172005679e-05 -8.2557044787895145e-04 0.0000000000000000e+00  -8.8330062163676174e-05 -8.2557044788536993e-04 0.0000000000000000e+00  -8.8330062152932340e-05 -8.2557044787084379e-04 0.0000000000000000e+00  -8.8330062163676174e-05 -8.2557044787053805e-04 0.0000000000000000e+00  -8.8330062168927385e-05 -8.2557044788116323e-04 0.0000000000000000e+00  -8.8330062170617426e-05 -8.2557044788983684e-04 0.0000000000000000e+00  -8.8330062161865420e-05 -8.2557044786724207e-04 0.0000000000000000e+00  -8.8330062178041541e-05 -8.2557044788099431e-04 0.0000000000000000e+00  -8.8330062177075801e-05 -8.2557044789660227e-04 0.0000000000000000e+00  -8.8330062167780570e-05 -8.2557044788879601e-04 0.0000000000000000e+00  -8.8330062177679390e-05 -8.2557044789877067e-04 0.0000000000000000e+00  -8.8330062161261832e-05 -8.2557044787587232e-04 0.0000000000000000e+00  -8.8330062176653288e-05 -8.2557044787548201e-04 0.0000000000000000e+00  -8.8330062172367829e-05 -8.2557044787709118e-04 0.0000000000000000e+00  -8.8330062175687548e-05 -8.2557044788441583e-04 0.0000000000000000e+00  -8.8330062160054654e-05 -8.2557044787231614e-04 0.0000000000000000e+00  -8.8330062156976373e-05 -8.2557044788029586e-04 0.0000000000000000e+00  -8.8330062166392317e-05 -8.2557044787049468e-04 0.0000000000000000e+00  -8.8330062164159050e-05 -8.2557044786819617e-04 0.0000000000000000e+00  -8.8330062160356455e-05 -8.2557044788038715e-04 0.0000000000000000e+00  -8.8330062170315624e-05 -8.2557044788732149e-04 0.0000000000000000e+00  -8.8330062166694105e-05 -8.2557044787825756e-04 0.0000000000000000e+00  -8.8330062166392317e-05 -8.2557044789343639e-04 0.0000000000000000e+00  -8.8330062172669617e-05 -8.2557044787261971e-04 0.0000000000000000e+00  -8.8330062165064427e-05 -8.2557044786967068e-04 0.0000000000000000e+00  -8.8330062176955089e-05 -8.2557044788832351e-04 0.0000000000000000e+00  -8.8330062181663061e-05 -8.2557044788059944e-04 0.0000000000000000e+00  -8.8330062150940498e-05 -8.2557044787678305e-04 0.0000000000000000e+00  -8.8330062158787127e-05 -8.2557044787092836e-04 0.0000000000000000e+00  -8.8330062163796900e-05 -7.9481500363846555e-04 0.0000000000000000e+00  1.0721931481346134e-04 5.9114291754945592e-04 0.0000000000000000e+00  1.0721931479767303e-04 5.9114291754546605e-04 0.0000000000000000e+00  1.0721931480621603e-04 5.9114291753956810e-04 0.0000000000000000e+00  1.0721931480751369e-04 5.9114291754043524e-04 0.0000000000000000e+00  1.0721931481270438e-04 5.9114291754373122e-04 0.0000000000000000e+00  1.0721931484233450e-04 5.9114291754121641e-04 0.0000000000000000e+00  1.0721931480837881e-04 5.9114291754173585e-04 0.0000000000000000e+00  1.0721931480297184e-04 5.9114291752803251e-04 0.0000000000000000e+00  1.0721931482806012e-04 5.9114291754746142e-04 0.0000000000000000e+00  1.0721931480654045e-04 5.9114291754772065e-04 0.0000000000000000e+00  1.0721931481064972e-04 5.9114291753549182e-04 0.0000000000000000e+00  1.0721931482708688e-04 5.9114291754321134e-04 0.0000000000000000e+00  1.0721931481227181e-04 5.9114291755691468e-04 0.0000000000000000e+00  1.0721931480729741e-04 5.9114291752395494e-04 0.0000000000000000e+00  1.0721931481876015e-04 5.9114291754520693e-04 0.0000000000000000e+00  1.0721931481529972e-04 5.9114291755006253e-04 0.0000000000000000e+00  1.0721931480729741e-04 5.9114291752664376e-04 0.0000000000000000e+00  1.0721931481605668e-04 5.9114291753844151e-04 0.0000000000000000e+00  1.0721931481216367e-04 5.9114291754329710e-04 0.0000000000000000e+00  1.0721931480264743e-04 5.9114291752768459e-04 0.0000000000000000e+00  1.0721931481778690e-04 5.9114291754407936e-04 0.0000000000000000e+00  1.0721931481508343e-04 5.9114291754138891e-04 0.0000000000000000e+00  1.0721931480859509e-04 5.9114291753462349e-04 0.0000000000000000e+00  1.0721931482611362e-04 5.9114291754971721e-04 0.0000000000000000e+00  1.0721931481043345e-04 5.9114291753644495e-04 0.0000000000000000e+00  1.0721931481994970e-04 5.9114291754520530e-04 0.0000000000000000e+00  1.0721931481173112e-04 5.9114291757859873e-04 0.0000000000000000e+00  1.0721931479972767e-04 5.9114291754685329e-04 0.0000000000000000e+00  1.0721931480102534e-04 5.9114291752569302e-04 0.0000000000000000e+00  1.0721931481432645e-04 5.9114291754468488e-04 0.0000000000000000e+00  1.0721931480794625e-04 5.9114291752343452e-04 0.0000000000000000e+00  1.0721931481324507e-04 5.9114291755032273e-04 0.0000000000000000e+00  1.0721931481940900e-04 5.9114291755092989e-04 0.0000000000000000e+00  1.0721931481584041e-04 5.9114291754225627e-04 0.0000000000000000e+00  1.0721931482568107e-04 5.9114291755284144e-04 0.0000000000000000e+00  1.0721931480783811e-04 5.9114291753141425e-04 0.0000000000000000e+00  1.0721931480491836e-04 5.9114291753878682e-04 0.0000000000000000e+00  1.0721931481194740e-04 5.9114291752690397e-04 0.0000000000000000e+00  1.0721931481843574e-04 5.9114291754607266e-04 0.0000000000000000e+00  1.0721931481000089e-04 5.9114291754034807e-04 0.0000000000000000e+00  1.0721931481064973e-04 5.9114291754139227e-04 0.0000000000000000e+00  1.0721931480426952e-04 5.9114291752586313e-04 0.0000000000000000e+00  1.0721931483119617e-04 5.9114291755223093e-04 0.0000000000000000e+00  1.0721931482622176e-04 5.9114291753800620e-04 0.0000000000000000e+00  1.0721931482243690e-04 5.9114291753679189e-04 0.0000000000000000e+00  1.0721931483184501e-04 5.9114291754641961e-04 0.0000000000000000e+00  1.0721931481389390e-04 5.9114291754633623e-04 0.0000000000000000e+00  1.0721931482622176e-04 5.9114291754416447e-04 0.0000000000000000e+00  1.0721931483238570e-04 5.9114291755301156e-04 0.0000000000000000e+00  1.0721931481043345e-04 5.9114291753306224e-04 0.0000000000000000e+00  1.0721931481346134e-04 -4.8413091998867860e-04 0.0000000000000000e+00  -1.6396488249570849e-04 -5.3382071528492575e-04 0.0000000000000000e+00  -1.6396488250207476e-04 -5.3382071529420652e-04 0.0000000000000000e+00  -1.6396488250012954e-04 -5.3382071528327798e-04 0.0000000000000000e+00  -1.6396488250331265e-04 -5.3382071530279330e-04 0.0000000000000000e+00  -1.6396488249703479e-04 -5.3382071529472683e-04 0.0000000000000000e+00  -1.6396488251560308e-04 -5.3382071528102295e-04 0.0000000000000000e+00  -1.6396488252515249e-04 -5.3382071528891529e-04 0.0000000000000000e+00  -1.6396488250923683e-04 -5.3382071527495142e-04 0.0000000000000000e+00  -1.6396488252585988e-04 -5.3382071527373711e-04 0.0000000000000000e+00  -1.6396488252736301e-04 -5.3382071533601303e-04 0.0000000000000000e+00  -1.6396488251206628e-04 -5.3382071530236005e-04 0.0000000000000000e+00  -1.6396488252983879e-04 -5.3382071528145663e-04 0.0000000000000000e+00  -1.6396488253302193e-04 -5.3382071530305329e-04 0.0000000000000000e+00  -1.6396488252462199e-04 -5.3382071530340023e-04 0.0000000000000000e+00  -1.6396488250782209e-04 -5.3382071528544725e-04 0.0000000000000000e+00  -1.6396488252417988e-04 -5.3382071531164017e-04 0.0000000000000000e+00  -1.6396488250861789e-04 -5.3382071529654808e-04 0.0000000000000000e+00  -1.6396488250720314e-04 -5.3382071529203920e-04 0.0000000000000000e+00  -1.6396488251162417e-04 -5.3382071531250753e-04 0.0000000000000000e+00  -1.6396488250658420e-04 -5.3382071527737938e-04 0.0000000000000000e+00  -1.6396488251012103e-04 -5.3382071530053935e-04 0.0000000000000000e+00  -1.6396488251595677e-04 -5.3382071531268100e-04 0.0000000000000000e+00  -1.6396488251339258e-04 -5.3382071529030307e-04 0.0000000000000000e+00  -1.6396488250313581e-04 -5.3382071530470269e-04 0.0000000000000000e+00  -1.6396488250357792e-04 -5.3382071528587953e-04 0.0000000000000000e+00  -1.6396488250764525e-04 -5.3382071529481335e-04 0.0000000000000000e+00  -1.6396488251153575e-04 -5.3382071529195106e-04 0.0000000000000000e+00  -1.6396488249995268e-04 -5.3382071529177759e-04 0.0000000000000000e+00  -1.6396488250649578e-04 -5.3382071530487768e-04 0.0000000000000000e+00  -1.6396488248235700e-04 -5.3382071529550724e-04 0.0000000000000000e+00  -1.6396488249986426e-04 -5.3382071528570605e-04 0.0000000000000000e+00  -1.6396488249650429e-04 -5.3382071530608905e-04 0.0000000000000000e+00  -1.6396488250180951e-04 -5.3382071528761425e-04 0.0000000000000000e+00  -1.6396488250331265e-04 -5.3382071530418086e-04 0.0000000000000000e+00  -1.6396488249924532e-04 -5.3382071528891822e-04 0.0000000000000000e+00  -1.6396488250269370e-04 -5.3382071530513496e-04 0.0000000000000000e+00  -1.6396488249367482e-04 -5.3382071529385925e-04 0.0000000000000000e+00  -1.6396488249429376e-04 -5.3382071528050188e-04 0.0000000000000000e+00  -1.6396488250242845e-04 -5.3382071529793585e-04 0.0000000000000000e+00  -1.6396488250092529e-04 -5.3382071530227266e-04 0.0000000000000000e+00  -1.6396488250773367e-04 -5.3382071528605593e-04 0.0000000000000000e+00  -1.6396488250561159e-04 -5.3382071529299189e-04 0.0000000000000000e+00  -1.6396488249022643e-04 -5.3382071528327744e-04 0.0000000000000000e+00  -1.6396488250959050e-04 -5.3382071529316536e-04 0.0000000000000000e+00  -1.6396488250729156e-04 -5.3382071531398205e-04 0.0000000000000000e+00  -1.6396488248244544e-04 -5.3382071531242080e-04 0.0000000000000000e+00  -1.6396488249694637e-04 -5.3382071528128544e-04 0.0000000000000000e+00  -1.6396488251091681e-04 -5.3382071530747683e-04 0.0000000000000000e+00  -1.6396488249730007e-04 -5.3382071529594092e-04 0.0000000000000000e+00  -1.6396488250543475e-04 -5.3382071530019099e-04 0.0000000000000000e+00  -1.6396488249570849e-04 1.1486738656187481e-03 0.0000000000000000e+00  6.5270164087671628e-04 2.8119797641473765e-03 0.0000000000000000e+00  6.5270164086271131e-04 2.8119797641480704e-03 0.0000000000000000e+00  6.5270164086072560e-04 2.8119797641629894e-03 0.0000000000000000e+00  6.5270164084682515e-04 2.8119797641348860e-03 0.0000000000000000e+00  6.5270164083856851e-04 2.8119797641709683e-03 0.0000000000000000e+00  6.5270164082163718e-04 2.8119797641213574e-03 0.0000000000000000e+00  6.5270164084316705e-04 2.8119797641367921e-03 0.0000000000000000e+00  6.5270164082843068e-04 2.8119797641279493e-03 0.0000000000000000e+00  6.5270164084107692e-04 2.8119797641194492e-03 0.0000000000000000e+00  6.5270164086668285e-04 2.8119797641015772e-03 0.0000000000000000e+00  6.5270164088204654e-04 2.8119797641681949e-03 0.0000000000000000e+00  6.5270164087567111e-04 2.8119797641267350e-03 0.0000000000000000e+00  6.5270164089166179e-04 2.8119797641387003e-03 0.0000000000000000e+00  6.5270164087190860e-04 2.8119797641681906e-03 0.0000000000000000e+00  6.5270164084797473e-04 2.8119797640856255e-03 0.0000000000000000e+00  6.5270164087211763e-04 2.8119797641447718e-03 0.0000000000000000e+00  6.5270164084975152e-04 2.8119797641501494e-03 0.0000000000000000e+00  6.5270164083658269e-04 2.8119797641170240e-03 0.0000000000000000e+00  6.5270164084577998e-04 2.8119797641360982e-03 0.0000000000000000e+00  6.5270164084996055e-04 2.8119797641312410e-03 0.0000000000000000e+00  6.5270164084254006e-04 2.8119797641539736e-03 0.0000000000000000e+00  6.5270164084797473e-04 2.8119797641501494e-03 0.0000000000000000e+00  6.5270164085257337e-04 2.8119797641484147e-03 0.0000000000000000e+00  6.5270164084996055e-04 2.8119797641522389e-03 0.0000000000000000e+00  6.5270164083459687e-04 2.8119797641338430e-03 0.0000000000000000e+00  6.5270164083930003e-04 2.811979