<?xml version="1.0"?>
<VTKFile type="UnstructuredGrid"  version="0.1"  >
<UnstructuredGrid>
<Piece  NumberOfPoints="2601" NumberOfCells="5000">
<Points>
<DataArray  type="Float64"  NumberOfComponents="3"  format="ascii">0 0 0  0.02 0 0  0.04 0 0  0.06 0 0  0.08 0 0  0.1 0 0  0.12 0 0  0.14 0 0  0.16 0 0  0.18 0 0  0.2 0 0  0.22 0 0  0.24 0 0  0.26 0 0  0.28 0 0  0.3 0 0  0.32 0 0  0.34 0 0  0.36 0 0  0.38 0 0  0.4 0 0  0.42 0 0  0.44 0 0  0.46 0 0  0.48 0 0  0.5 0 0  0.52 0 0  0.54 0 0  0.5600000000000001 0 0  0.58 0 0  0.6 0 0  0.62 0 0  0.64 0 0  0.66 0 0  0.68 0 0  0.7 0 0  0.72 0 0  0.74 0 0  0.76 0 0  0.78 0 0  0.8 0 0  0.82 0 0  0.84 0 0  0.86 0 0  0.88 0 0  0.9 0 0  0.92 0 0  0.9399999999999999 0 0  0.96 0 0  0.98 0 0  1 0 0  0 0.01313563088723984 0  0.02 0.01313563088723984 0  0.04 0.01313563088723984 0  0.06 0.01313563088723984 0  0.08 0.01313563088723984 0  0.1 0.01313563088723984 0  0.12 0.01313563088723984 0  0.14 0.01313563088723984 0  0.16 0.01313563088723984 0  0.18 0.01313563088723984 0  0.2 0.01313563088723984 0  0.22 0.01313563088723984 0  0.24 0.01313563088723984 0  0.26 0.01313563088723984 0  0.28 0.01313563088723984 0  0.3 0.01313563088723984 0  0.32 0.01313563088723984 0  0.34 0.01313563088723984 0  0.36 0.01313563088723984 0  0.38 0.01313563088723984 0  0.4 0.01313563088723984 0  0.42 0.01313563088723984 0  0.44 0.01313563088723984 0  0.46 0.01313563088723984 0  0.48 0.01313563088723984 0  0.5 0.01313563088723984 0  0.52 0.01313563088723984 0  0.54 0.01313563088723984 0  0.5600000000000001 0.01313563088723984 0  0.58 0.01313563088723984 0  0.6 0.01313563088723984 0  0.62 0.01313563088723984 0  0.64 0.01313563088723984 0  0.66 0.01313563088723984 0  0.68 0.01313563088723984 0  0.7 0.01313563088723984 0  0.72 0.01313563088723984 0  0.74 0.01313563088723984 0  0.76 0.01313563088723984 0  0.78 0.01313563088723984 0  0.8 0.01313563088723984 0  0.82 0.01313563088723984 0  0.84 0.01313563088723984 0  0.86 0.01313563088723984 0  0.88 0.01313563088723984 0  0.9 0.01313563088723984 0  0.92 0.01313563088723984 0  0.9399999999999999 0.01313563088723984 0  0.96 0.01313563088723984 0  0.98 0.01313563088723984 0  1 0.01313563088723984 0  0 0.02664639863733726 0  0.02 0.02664639863733726 0  0.04 0.02664639863733726 0  0.06 0.02664639863733726 0  0.08 0.02664639863733726 0  0.1 0.02664639863733726 0  0.12 0.02664639863733726 0  0.14 0.02664639863733726 0  0.16 0.02664639863733726 0  0.18 0.02664639863733726 0  0.2 0.02664639863733726 0  0.22 0.02664639863733726 0  0.24 0.02664639863733726 0  0.26 0.02664639863733726 0  0.28 0.02664639863733726 0  0.3 0.02664639863733726 0  0.32 0.02664639863733726 0  0.34 0.02664639863733726 0  0.36 0.02664639863733726 0  0.38 0.02664639863733726 0  0.4 0.02664639863733726 0  0.42 0.02664639863733726 0  0.44 0.02664639863733726 0  0.46 0.02664639863733726 0  0.48 0.02664639863733726 0  0.5 0.02664639863733726 0  0.52 0.02664639863733726 0  0.54 0.02664639863733726 0  0.5600000000000001 0.02664639863733726 0  0.58 0.02664639863733726 0  0.6 0.02664639863733726 0  0.62 0.02664639863733726 0  0.64 0.02664639863733726 0  0.66 0.02664639863733726 0  0.68 0.02664639863733726 0  0.7 0.02664639863733726 0  0.72 0.02664639863733726 0  0.74 0.02664639863733726 0  0.76 0.02664639863733726 0  0.78 0.02664639863733726 0  0.8 0.02664639863733726 0  0.82 0.02664639863733726 0  0.84 0.02664639863733726 0  0.86 0.02664639863733726 0  0.88 0.02664639863733726 0  0.9 0.02664639863733726 0  0.92 0.02664639863733726 0  0.9399999999999999 0.02664639863733726 0  0.96 0.02664639863733726 0  0.98 0.02664639863733726 0  1 0.02664639863733726 0  0 0.04101652939099896 0  0.02 0.04101652939099896 0  0.04 0.04101652939099896 0  0.06 0.04101652939099896 0  0.08 0.04101652939099896 0  0.1 0.04101652939099896 0  0.12 0.04101652939099896 0  0.14 0.04101652939099896 0  0.16 0.04101652939099896 0  0.18 0.04101652939099896 0  0.2 0.04101652939099896 0  0.22 0.04101652939099896 0  0.24 0.04101652939099896 0  0.26 0.04101652939099896 0  0.28 0.04101652939099896 0  0.3 0.04101652939099896 0  0.32 0.04101652939099896 0  0.34 0.04101652939099896 0  0.36 0.04101652939099896 0  0.38 0.04101652939099896 0  0.4 0.04101652939099896 0  0.42 0.04101652939099896 0  0.44 0.04101652939099896 0  0.46 0.04101652939099896 0  0.48 0.04101652939099896 0  0.5 0.04101652939099896 0  0.52 0.04101652939099896 0  0.54 0.04101652939099896 0  0.5600000000000001 0.04101652939099896 0  0.58 0.04101652939099896 0  0.6 0.04101652939099896 0  0.62 0.04101652939099896 0  0.64 0.04101652939099896 0  0.66 0.04101652939099896 0  0.68 0.04101652939099896 0  0.7 0.04101652939099896 0  0.72 0.04101652939099896 0  0.74 0.04101652939099896 0  0.76 0.04101652939099896 0  0.78 0.04101652939099896 0  0.8 0.04101652939099896 0  0.82 0.04101652939099896 0  0.84 0.04101652939099896 0  0.86 0.04101652939099896 0  0.88 0.04101652939099896 0  0.9 0.04101652939099896 0  0.92 0.04101652939099896 0  0.9399999999999999 0.04101652939099896 0  0.96 0.04101652939099896 0  0.98 0.04101652939099896 0  1 0.04101652939099896 0  0 0.05705811164099547 0  0.02 0.05705811164099547 0  0.04 0.05705811164099547 0  0.06 0.05705811164099547 0  0.08 0.05705811164099547 0  0.1 0.05705811164099547 0  0.12 0.05705811164099547 0  0.14 0.05705811164099547 0  0.16 0.05705811164099547 0  0.18 0.05705811164099547 0  0.2 0.05705811164099547 0  0.22 0.05705811164099547 0  0.24 0.05705811164099547 0  0.26 0.05705811164099547 0  0.28 0.05705811164099547 0  0.3 0.05705811164099547 0  0.32 0.05705811164099547 0  0.34 0.05705811164099547 0  0.36 0.05705811164099547 0  0.38 0.05705811164099547 0  0.4 0.05705811164099547 0  0.42 0.05705811164099547 0  0.44 0.05705811164099547 0  0.46 0.05705811164099547 0  0.48 0.05705811164099547 0  0.5 0.05705811164099547 0  0.52 0.05705811164099547 0  0.54 0.05705811164099547 0  0.5600000000000001 0.05705811164099547 0  0.58 0.05705811164099547 0  0.6 0.05705811164099547 0  0.62 0.05705811164099547 0  0.64 0.05705811164099547 0  0.66 0.05705811164099547 0  0.68 0.05705811164099547 0  0.7 0.05705811164099547 0  0.72 0.05705811164099547 0  0.74 0.05705811164099547 0  0.76 0.05705811164099547 0  0.78 0.05705811164099547 0  0.8 0.05705811164099547 0  0.82 0.05705811164099547 0  0.84 0.05705811164099547 0  0.86 0.05705811164099547 0  0.88 0.05705811164099547 0  0.9 0.05705811164099547 0  0.92 0.05705811164099547 0  0.9399999999999999 0.05705811164099547 0  0.96 0.05705811164099547 0  0.98 0.05705811164099547 0  1 0.05705811164099547 0  0 0.07667714377545 0  0.02 0.07667714377545 0  0.04 0.07667714377545 0  0.06 0.07667714377545 0  0.08 0.07667714377545 0  0.1 0.07667714377545 0  0.12 0.07667714377545 0  0.14 0.07667714377545 0  0.16 0.07667714377545 0  0.18 0.07667714377545 0  0.2 0.07667714377545 0  0.22 0.07667714377545 0  0.24 0.07667714377545 0  0.26 0.07667714377545 0  0.28 0.07667714377545 0  0.3 0.07667714377545 0  0.32 0.07667714377545 0  0.34 0.07667714377545 0  0.36 0.07667714377545 0  0.38 0.07667714377545 0  0.4 0.07667714377545 0  0.42 0.07667714377545 0  0.44 0.07667714377545 0  0.46 0.07667714377545 0  0.48 0.07667714377545 0  0.5 0.07667714377545 0  0.52 0.07667714377545 0  0.54 0.07667714377545 0  0.5600000000000001 0.07667714377545 0  0.58 0.07667714377545 0  0.6 0.07667714377545 0  0.62 0.07667714377545 0  0.64 0.07667714377545 0  0.66 0.07667714377545 0  0.68 0.07667714377545 0  0.7 0.07667714377545 0  0.72 0.07667714377545 0  0.74 0.07667714377545 0  0.76 0.07667714377545 0  0.78 0.07667714377545 0  0.8 0.07667714377545 0  0.82 0.07667714377545 0  0.84 0.07667714377545 0  0.86 0.07667714377545 0  0.88 0.07667714377545 0  0.9 0.07667714377545 0  0.92 0.07667714377545 0  0.9399999999999999 0.07667714377545 0  0.96 0.07667714377545 0  0.98 0.07667714377545 0  1 0.07667714377545 0  0 0.1098730133816912 0  0.02 0.1098730133816912 0  0.04 0.1098730133816912 0  0.06 0.1098730133816912 0  0.08 0.1098730133816912 0  0.1 0.1098730133816912 0  0.12 0.1098730133816912 0  0.14 0.1098730133816912 0  0.16 0.1098730133816912 0  0.18 0.1098730133816912 0  0.2 0.1098730133816912 0  0.22 0.1098730133816912 0  0.24 0.1098730133816912 0  0.26 0.1098730133816912 0  0.28 0.1098730133816912 0  0.3 0.1098730133816912 0  0.32 0.1098730133816912 0  0.34 0.1098730133816912 0  0.36 0.1098730133816912 0  0.38 0.1098730133816912 0  0.4 0.1098730133816912 0  0.42 0.1098730133816912 0  0.44 0.1098730133816912 0  0.46 0.1098730133816912 0  0.48 0.1098730133816912 0  0.5 0.1098730133816912 0  0.52 0.1098730133816912 0  0.54 0.1098730133816912 0  0.5600000000000001 0.1098730133816912 0  0.58 0.1098730133816912 0  0.6 0.1098730133816912 0  0.62 0.1098730133816912 0  0.64 0.1098730133816912 0  0.66 0.1098730133816912 0  0.68 0.1098730133816912 0  0.7 0.1098730133816912 0  0.72 0.1098730133816912 0  0.74 0.1098730133816912 0  0.76 0.1098730133816912 0  0.78 0.1098730133816912 0  0.8 0.1098730133816912 0  0.82 0.1098730133816912 0  0.84 0.1098730133816912 0  0.86 0.1098730133816912 0  0.88 0.1098730133816912 0  0.9 0.1098730133816912 0  0.92 0.1098730133816912 0  0.9399999999999999 0.1098730133816912 0  0.96 0.1098730133816912 0  0.98 0.1098730133816912 0  1 0.1098730133816912 0  0 0.1603283563168221 0  0.02 0.1603283563168221 0  0.04 0.1603283563168221 0  0.06 0.1603283563168221 0  0.08 0.1603283563168221 0  0.1 0.1603283563168221 0  0.12 0.1603283563168221 0  0.14 0.1603283563168221 0  0.16 0.1603283563168221 0  0.18 0.1603283563168221 0  0.2 0.1603283563168221 0  0.22 0.1603283563168221 0  0.24 0.1603283563168221 0  0.26 0.1603283563168221 0  0.28 0.1603283563168221 0  0.3 0.1603283563168221 0  0.32 0.1603283563168221 0  0.34 0.1603283563168221 0  0.36 0.1603283563168221 0  0.38 0.1603283563168221 0  0.4 0.1603283563168221 0  0.42 0.1603283563168221 0  0.44 0.1603283563168221 0  0.46 0.1603283563168221 0  0.48 0.1603283563168221 0  0.5 0.1603283563168221 0  0.52 0.1603283563168221 0  0.54 0.1603283563168221 0  0.5600000000000001 0.1603283563168221 0  0.58 0.1603283563168221 0 
[...]
<PointData  Vectors="u_paraw"> 
<DataArray  type="Float64"  Name="u_paraw"  NumberOfComponents="3" format="ascii">2.4950206768787137e-05 4.5155042321344194e-04 0.0000000000000000e+00  2.4950206768952214e-05 4.5155042321940505e-04 0.0000000000000000e+00  2.4950206769397919e-05 4.5155042323296842e-04 0.0000000000000000e+00  2.4950206758700869e-05 4.5155042322143245e-04 0.0000000000000000e+00  2.4950206758964990e-05 4.5155042323021449e-04 0.0000000000000000e+00  2.4950206753352333e-05 4.5155042322239761e-04 0.0000000000000000e+00  2.4950206754260265e-05 4.5155042322125860e-04 0.0000000000000000e+00  2.4950206768572529e-05 4.5155042322872935e-04 0.0000000000000000e+00  2.4950206755927551e-05 4.5155042322601884e-04 0.0000000000000000e+00  2.4950206756521832e-05 4.5155042321709526e-04 0.0000000000000000e+00  2.4950206769711569e-05 4.5155042322596463e-04 0.0000000000000000e+00  2.4950206756885003e-05 4.5155042323679581e-04 0.0000000000000000e+00  2.4950206757991028e-05 4.5155042322066229e-04 0.0000000000000000e+00  2.4950206762035437e-05 4.5155042321657485e-04 0.0000000000000000e+00  2.4950206772204248e-05 4.5155042324159959e-04 0.0000000000000000e+00  2.4950206766855719e-05 4.5155042322897812e-04 0.0000000000000000e+00  2.4950206770454420e-05 4.5155042322665793e-04 0.0000000000000000e+00  2.4950206766294451e-05 4.5155042323249229e-04 0.0000000000000000e+00  2.4950206765370016e-05 4.5155042322812160e-04 0.0000000000000000e+00  2.4950206773376301e-05 4.5155042323854078e-04 0.0000000000000000e+00  2.4950206768390943e-05 4.5155042323600511e-04 0.0000000000000000e+00  2.4950206763174477e-05 4.5155042321554486e-04 0.0000000000000000e+00  2.4950206769645537e-05 4.5155042322852276e-04 0.0000000000000000e+00  2.4950206753550427e-05 4.5155042323639542e-04 0.0000000000000000e+00  2.4950206770371882e-05 4.5155042323658922e-04 0.0000000000000000e+00  2.4950206767218889e-05 4.5155042322997559e-04 0.0000000000000000e+00  2.4950206758865942e-05 4.5155042321266088e-04 0.0000000000000000e+00  2.4950206759757363e-05 4.5155042323535323e-04 0.0000000000000000e+00  2.4950206762051948e-05 4.5155042323970337e-04 0.0000000000000000e+00  2.4950206759031018e-05 4.5155042321963230e-04 0.0000000000000000e+00  2.4950206769150304e-05 4.5155042322196333e-04 0.0000000000000000e+00  2.4950206758618324e-05 4.5155042322087913e-04 0.0000000000000000e+00  2.4950206755630412e-05 4.5155042321374508e-04 0.0000000000000000e+00  2.4950206761688774e-05 4.5155042322427268e-04 0.0000000000000000e+00  2.4950206762811306e-05 4.5155042322005763e-04 0.0000000000000000e+00  2.4950206761787823e-05 4.5155042322015271e-04 0.0000000000000000e+00  2.4950206755630412e-05 4.5155042322899980e-04 0.0000000000000000e+00  2.4950206756620878e-05 4.5155042323187294e-04 0.0000000000000000e+00  2.4950206762382104e-05 4.5155042322080324e-04 0.0000000000000000e+00  2.4950206766888733e-05 4.5155042322789392e-04 0.0000000000000000e+00  2.4950206759856408e-05 4.5155042323262353e-04 0.0000000000000000e+00  2.4950206777354682e-05 4.5155042322916243e-04 0.0000000000000000e+00  2.4950206756835482e-05 4.5155042323771679e-04 0.0000000000000000e+00  2.4950206770025218e-05 4.5155042323022495e-04 0.0000000000000000e+00  2.4950206762844320e-05 4.5155042322559541e-04 0.0000000000000000e+00  2.4950206758123091e-05 4.5155042321646643e-04 0.0000000000000000e+00  2.4950206768820148e-05 4.5155042322991303e-04 0.0000000000000000e+00  2.4950206759080543e-05 4.5155042322434858e-04 0.0000000000000000e+00  2.4950206765931281e-05 4.5155042324223791e-04 0.0000000000000000e+00  2.4950206756736433e-05 4.5155042322740603e-04 0.0000000000000000e+00  2.4950206768787130e-05 -1.1957290555939752e-14 0.0000000000000000e+00  3.7133182551953472e-05 7.8501170040845894e-04 0.0000000000000000e+00  3.7133182557859670e-05 7.8501170039672788e-04 0.0000000000000000e+00  3.7133182564536241e-05 7.8501170041474753e-04 0.0000000000000000e+00  3.7133182551086808e-05 7.8501170040095626e-04 0.0000000000000000e+00  3.7133182557763379e-05 7.8501170040774337e-04 0.0000000000000000e+00  3.7133182554874475e-05 7.8501170042235896e-04 0.0000000000000000e+00  3.7133182556832510e-05 7.8501170041847643e-04 0.0000000000000000e+00  3.7133182559625117e-05 7.8501170040394920e-04 0.0000000000000000e+00  3.7133182550990510e-05 7.8501170041420576e-04 0.0000000000000000e+00  3.7133182550348534e-05 7.8501170040303739e-04 0.0000000000000000e+00  3.7133182554136201e-05 7.8501170040160733e-04 0.0000000000000000e+00  3.7133182551696685e-05 7.8501170040015450e-04 0.0000000000000000e+00  3.7133182558694248e-05 7.8501170041134238e-04 0.0000000000000000e+00  3.7133182552916446e-05 7.8501170041786928e-04 0.0000000000000000e+00  3.7133182560844871e-05 7.8501170039709802e-04 0.0000000000000000e+00  3.7133182556190534e-05 7.8501170040119425e-04 0.0000000000000000e+00  3.7133182569447379e-05 7.8501170042582732e-04 0.0000000000000000e+00  3.7133182553558423e-05 7.8501170040082768e-04 0.0000000000000000e+00  3.7133182562674510e-05 7.8501170041587434e-04 0.0000000000000000e+00  3.7133182560010300e-05 7.8501170039538292e-04 0.0000000000000000e+00  3.7133182552146066e-05 7.8501170040152157e-04 0.0000000000000000e+00  3.7133182549867046e-05 7.8501170040186645e-04 0.0000000000000000e+00  3.7133182567039962e-05 7.8501170040555274e-04 0.0000000000000000e+00  3.7133182551985577e-05 7.8501170040774489e-04 0.0000000000000000e+00  3.7133182565563414e-05 7.8501170041795601e-04 0.0000000000000000e+00  3.7133182553301629e-05 7.8501170040997628e-04 0.0000000000000000e+00  3.7133182561518947e-05 7.8501170041622129e-04 0.0000000000000000e+00  3.7133182565306621e-05 7.8501170041550571e-04 0.0000000000000000e+00  3.7133182549706551e-05 7.8501170040189247e-04 0.0000000000000000e+00  3.7133182561454755e-05 7.8501170041400952e-04 0.0000000000000000e+00  3.7133182554200399e-05 7.8501170039939447e-04 0.0000000000000000e+00  3.7133182557795478e-05 7.8501170041370594e-04 0.0000000000000000e+00  3.7133182547106539e-05 7.8501170039917763e-04 0.0000000000000000e+00  3.7133182565210323e-05 7.8501170040327591e-04 0.0000000000000000e+00  3.7133182548871979e-05 7.8501170041544500e-04 0.0000000000000000e+00  3.7133182557859676e-05 7.8501170040774283e-04 0.0000000000000000e+00  3.7133182566911565e-05 7.8501170041450825e-04 0.0000000000000000e+00  3.7133182547876912e-05 7.8501170041643813e-04 0.0000000000000000e+00  3.7133182550541122e-05 7.8501170040282055e-04 0.0000000000000000e+00  3.7133182567874533e-05 7.8501170040704894e-04 0.0000000000000000e+00  3.7133182556575717e-05 7.8501170041520647e-04 0.0000000000000000e+00  3.7133182568997997e-05 7.8501170041589603e-04 0.0000000000000000e+00  3.7133182561326359e-05 7.8501170041153753e-04 0.0000000000000000e+00  3.7133182553237431e-05 7.8501170041175438e-04 0.0000000000000000e+00  3.7133182550059641e-05 7.8501170041479014e-04 0.0000000000000000e+00  3.7133182553558423e-05 7.8501170040362286e-04 0.0000000000000000e+00  3.7133182570442446e-05 7.8501170041733151e-04 0.0000000000000000e+00  3.7133182556736213e-05 7.8501170040344939e-04 0.0000000000000000e+00  3.7133182561165863e-05 7.8501170040817651e-04 0.0000000000000000e+00  3.7133182553012737e-05 7.8501170041836801e-04 0.0000000000000000e+00  3.7133182551953478e-05 8.0280043437815790e-04 0.0000000000000000e+00  -2.0097164182788286e-05 1.1745556245433900e-04 0.0000000000000000e+00  -2.0097164179709996e-05 1.1745556245373184e-04 0.0000000000000000e+00  -2.0097164182245061e-05 1.1745556245616048e-04 0.0000000000000000e+00  -2.0097164195161812e-05 1.1745556244145865e-04 0.0000000000000000e+00  -2.0097164184538690e-05 1.1745556245529307e-04 0.0000000000000000e+00  -2.0097164195584322e-05 1.1745556244917826e-04 0.0000000000000000e+00  -2.0097164192747466e-05 1.1745556244748674e-04 0.0000000000000000e+00  -2.0097164186108015e-05 1.1745556245004562e-04 0.0000000000000000e+00  -2.0097164190272761e-05 1.1745556245980344e-04 0.0000000000000000e+00  -2.0097164192143881e-05 1.1745556245052251e-04 0.0000000000000000e+00  -2.0097164196731137e-05 1.1745556244748691e-04 0.0000000000000000e+00  -2.0097164190936706e-05 1.1745556244280315e-04 0.0000000000000000e+00  -2.0097164179709996e-05 1.1745556245204039e-04 0.0000000000000000e+00  -2.0097164190634912e-05 1.1745556244458108e-04 0.0000000000000000e+00  -2.0097164172527316e-05 1.1745556246604860e-04 0.0000000000000000e+00  -2.0097164186953036e-05 1.1745556243608094e-04 0.0000000000000000e+00  -2.0097164174458795e-05 1.1745556244531834e-04 0.0000000000000000e+00  -2.0097164189307022e-05 1.1745556244648959e-04 0.0000000000000000e+00  -2.0097164185383711e-05 1.1745556245013220e-04 0.0000000000000000e+00  -2.0097164195282531e-05 1.1745556243850955e-04 0.0000000000000000e+00  -2.0097164182667571e-05 1.1745556246348988e-04 0.0000000000000000e+00  -2.0097164193290695e-05 1.1745556244301983e-04 0.0000000000000000e+00  -2.0097164186409806e-05 1.1745556244158868e-04 0.0000000000000000e+00  -2.0097164181762191e-05 1.1745556245832908e-04 0.0000000000000000e+00  -2.0097164194075356e-05 1.1745556243894323e-04 0.0000000000000000e+00  -2.0097164194256432e-05 1.1745556244683622e-04 0.0000000000000000e+00  -2.0097164181279321e-05 1.1745556244913473e-04 0.0000000000000000e+00  -2.0097164187616981e-05 1.1745556244484129e-04 0.0000000000000000e+00  -2.0097164203008437e-05 1.1745556244323732e-04 0.0000000000000000e+00  -2.0097164186409806e-05 1.1745556243781566e-04 0.0000000000000000e+00  -2.0097164188462001e-05 1.1745556245165008e-04 0.0000000000000000e+00  -2.0097164180615376e-05 1.1745556246227526e-04 0.0000000000000000e+00  -2.0097164195041096e-05 1.1745556245438227e-04 0.0000000000000000e+00  -2.0097164183935101e-05 1.1745556245112966e-04 0.0000000000000000e+00  -2.0097164201861622e-05 1.1745556244566593e-04 0.0000000000000000e+00  -2.0097164201559831e-05 1.1745556244275962e-04 0.0000000000000000e+00  -2.0097164187737696e-05 1.1745556243820597e-04 0.0000000000000000e+00  -2.0097164188280926e-05 1.1745556244779032e-04 0.0000000000000000e+00  -2.0097164185081916e-05 1.1745556245446901e-04 0.0000000000000000e+00  -2.0097164183633310e-05 1.1745556246071401e-04 0.0000000000000000e+00  -2.0097164187254827e-05 1.1745556244098218e-04 0.0000000000000000e+00  -2.0097164187194471e-05 1.1745556245750477e-04 0.0000000000000000e+00  -2.0097164189367381e-05 1.1745556243872639e-04 0.0000000000000000e+00  -2.0097164195644681e-05 1.1745556245871908e-04 0.0000000000000000e+00  -2.0097164188341285e-05 1.1745556245138987e-04 0.0000000000000000e+00  -2.0097164189246665e-05 1.1745556246292578e-04 0.0000000000000000e+00  -2.0097164191057422e-05 1.1745556245065326e-04 0.0000000000000000e+00  -2.0097164199809427e-05 1.1745556244870105e-04 0.0000000000000000e+00  -2.0097164184236896e-05 1.1745556245563994e-04 0.0000000000000000e+00  -2.0097164188703436e-05 1.1745556244280299e-04 0.0000000000000000e+00  -2.0097164182788286e-05 6.1451415734831009e-04 0.0000000000000000e+00  2.2067332327402051e-05 3.7895110587340963e-05 0.0000000000000000e+00  2.2067332319399752e-05 3.7895110572769286e-05 0.0000000000000000e+00  2.2067332319183474e-05 3.7895110581963327e-05 0.0000000000000000e+00  2.2067332321778813e-05 3.7895110583784773e-05 0.0000000000000000e+00  2.2067332334647375e-05 3.7895110583004148e-05 0.0000000000000000e+00  2.2067332339946193e-05 3.7895110585779732e-05 0.0000000000000000e+00  2.2067332319183474e-05 3.7895110577192804e-05 0.0000000000000000e+00  2.2067332325779960e-05 3.7895110587080775e-05 0.0000000000000000e+00  2.2067332327834604e-05 3.7895110581876605e-05 0.0000000000000000e+00  2.2067332311830008e-05 3.7895110582050030e-05 0.0000000000000000e+00  2.2067332320481142e-05 3.7895110578320422e-05 0.0000000000000000e+00  2.2067332333782259e-05 3.7895110595667656e-05 0.0000000000000000e+00  2.2067332326969495e-05 3.7895110583524545e-05 0.0000000000000000e+00  2.2067332323617180e-05 3.7895110583958225e-05 0.0000000000000000e+00  2.2067332335836904e-05 3.7895110597142219e-05 0.0000000000000000e+00  2.2067332314425351e-05 3.7895110569820229e-05 0.0000000000000000e+00  2.2067332329024140e-05 3.7895110584738851e-05 0.0000000000000000e+00  2.2067332324914848e-05 3.7895110575718384e-05 0.0000000000000000e+00  2.2067332329348557e-05 3.7895110590983855e-05 0.0000000000000000e+00  2.2067332317453246e-05 3.7895110573636621e-05 0.0000000000000000e+00  2.2067332332809008e-05 3.7895110580402137e-05 0.0000000000000000e+00  2.2067332315939297e-05 3.7895110589335868e-05 0.0000000000000000e+00  2.2067332318426501e-05 3.7895110577973429e-05 0.0000000000000000e+00  2.2067332333241564e-05 3.7895110586473669e-05 0.0000000000000000e+00  2.2067332317777663e-05 3.7895110583958225e-05 0.0000000000000000e+00  2.2067332315831158e-05 3.7895110580835723e-05 0.0000000000000000e+00  2.2067332323184624e-05 3.7895110585432740e-05 0.0000000000000000e+00  2.2067332316047436e-05 3.7895110583351072e-05 0.0000000000000000e+00  2.2067332312262567e-05 3.7895110563315219e-05 0.0000000000000000e+00  2.2067332321778813e-05 3.7895110567825297e-05 0.0000000000000000e+00  2.2067332322860207e-05 3.7895110578580583e-05 0.0000000000000000e+00  2.2067332333241568e-05 3.7895110576932595e-05 0.0000000000000000e+00  2.2067332312911401e-05 3.7895110583090864e-05 0.0000000000000000e+00  2.2067332333565985e-05 3.7895110590723647e-05 0.0000000000000000e+00  2.2067332318318362e-05 3.7895110588381974e-05 0.0000000000000000e+00  2.2067332309991645e-05 3.7895110570167174e-05 0.0000000000000000e+00  2.2067332313668374e-05 3.7895110581442876e-05 0.0000000000000000e+00  2.2067332333674124e-05 3.7895110580141834e-05 0.0000000000000000e+00  2.2067332321670674e-05 3.7895110584999059e-05 0.0000000000000000e+00  2.2067332322643929e-05 3.7895110576585651e-05 0.0000000000000000e+00  2.2067332331943896e-05 3.7895110585866624e-05 0.0000000000000000e+00  2.2067332322427647e-05 3.7895110580835723e-05 0.0000000000000000e+00  2.2067332325455546e-05 3.7895110576325442e-05 0.0000000000000000e+00  2.2067332341352003e-05 3.7895110605815741e-05 0.0000000000000000e+00  2.2067332323400902e-05 3.7895110587340936e-05 0.0000000000000000e+00  2.2067332320373006e-05 3.7895110568952867e-05 0.0000000000000000e+00  2.2067332330862503e-05 3.7895110587080931e-05 0.0000000000000000e+00  2.2067332333241568e-05 3.7895110588121562e-05 0.0000000000000000e+00  2.2067332329997391e-05 3.7895110586126630e-05 0.0000000000000000e+00  2.2067332320697423e-05 3.7895110607290256e-05 0.0000000000000000e+00  2.2067332327402051e-05 -2.9401047575148447e-04 0.0000000000000000e+00  -1.1753069477196288e-04 -5.2822228522606321e-04 0.0000000000000000e+00  -1.1753069477037132e-04 -5.2822228524557885e-04 0.0000000000000000e+00  -1.1753069477187447e-04 -5.2822228523517073e-04 0.0000000000000000e+00  -1.1753069478982381e-04 -5.2822228526231893e-04 0.0000000000000000e+00  -1.1753069477169762e-04 -5.2822228524341045e-04 0.0000000000000000e+00  -1.1753069478292701e-04 -5.2822228523690556e-04 0.0000000000000000e+00  -1.1753069479663218e-04 -5.2822228524653262e-04 0.0000000000000000e+00  -1.1753069477470391e-04 -5.2822228522545638e-04 0.0000000000000000e+00  -1.1753069479530588e-04 -5.2822228523308917e-04 0.0000000000000000e+00  -1.1753069478628698e-04 -5.2822228525269089e-04 0.0000000000000000e+00  -1.1753069478504911e-04 -5.2822228523551778e-04 0.0000000000000000e+00  -1.1753069480202583e-04 -5.2822228525260481e-04 0.0000000000000000e+00  -1.1753069480414791e-04 -5.2822228527567598e-04 0.0000000000000000e+00  -1.1753069478557962e-04 -5.2822228524800714e-04 0.0000000000000000e+00  -1.1753069478469541e-04 -5.2822228525061063e-04 0.0000000000000000e+00  -1.1753069478469541e-04 -5.2822228525659402e-04 0.0000000000000000e+00  -1.1753069476630397e-04 -5.2822228523404261e-04 0.0000000000000000e+00  -1.1753069479106169e-04 -5.2822228525321272e-04 0.0000000000000000e+00  -1.1753069477302392e-04 -5.2822228524384380e-04 0.0000000000000000e+00  -1.1753069478885118e-04 -5.2822228524280297e-04 0.0000000000000000e+00  -1.1753069478787855e-04 -5.2822228526639662e-04 0.0000000000000000e+00  -1.1753069478487226e-04 -5.2822228524982860e-04 0.0000000000000000e+00  -1.1753069478275017e-04 -5.2822228525078270e-04 0.0000000000000000e+00  -1.1753069478124703e-04 -5.2822228523673285e-04 0.0000000000000000e+00  -1.1753069478336911e-04 -5.2822228526015020e-04 0.0000000000000000e+00  -1.1753069477664916e-04 -5.2822228521929747e-04 0.0000000000000000e+00  -1.1753069478858593e-04 -5.2822228524332339e-04 0.0000000000000000e+00  -1.1753069475772719e-04 -5.2822228523196095e-04 0.0000000000000000e+00  -1.1753069477514602e-04 -5.2822228524575493e-04 0.0000000000000000e+00  -1.1753069476984079e-04 -5.2822228523178747e-04 0.0000000000000000e+00  -1.1753069477956703e-04 -5.2822228525251742e-04 0.0000000000000000e+00  -1.1753069477656074e-04 -5.2822228525824201e-04 0.0000000000000000e+00  -1.1753069478619857e-04 -5.2822228524609894e-04 0.0000000000000000e+00  -1.1753069478469541e-04 -5.2822228527506883e-04 0.0000000000000000e+00  -1.1753069477682600e-04 -5.2822228524150485e-04 0.0000000000000000e+00  -1.1753069477744495e-04 -5.2822228523855290e-04 0.0000000000000000e+00  -1.1753069477939020e-04 -5.2822228524063456e-04 0.0000000000000000e+00  -1.1753069477293551e-04 -5.2822228523733859e-04 0.0000000000000000e+00  -1.1753069478575647e-04 -5.2822228524245602e-04 0.0000000000000000e+00  -1.1753069477284708e-04 -5.2822228523343546e-04 0.0000000000000000e+00  -1.1753069478168913e-04 -5.2822228524454062e-04 0.0000000000000000e+00  -1.1753069477470391e-04 -5.2822228526058388e-04 0.0000000000000000e+00  -1.1753069477028289e-04 -5.2822228523595081e-04 0.0000000000000000e+00  -1.1753069478053965e-04 -5.2822228527567598e-04 0.0000000000000000e+00  -1.1753069478248492e-04 -5.2822228524566526e-04 0.0000000000000000e+00  -1.1753069477850599e-04 -5.2822228524575200e-04 0.0000000000000000e+00  -1.1753069478301543e-04 -5.2822228524488756e-04 0.0000000000000000e+00  -1.1753069477549970e-04 -5.2822228524861429e-04 0.0000000000000000e+00  -1.1753069477956703e-04 -5.2822228524878776e-04 0.0000000000000000e+00  -1.1753069477337760e-04 -5.2822228525563992e-04 0.0000000000000000e+00  -1.1753069477196288e-04 2.6321091061500386e-04 0.0000000000000000e+00  5.1542375599820673e-04 1.4514723159485612e-03 0.0000000000000000e+00  5.1542375599622091e-04 1.4514723159608778e-03 0.0000000000000000e+00  5.1542375597813999e-04 1.4514723159600106e-03 0.0000000000000000e+00  5.1542375596789754e-04 1.4514723159575816e-03 0.0000000000000000e+00  5.1542375595441516e-04 1.4514723159393670e-03 0.0000000000000000e+00  5.1542375596612085e-04 1.4514723159489091e-03 0.0000000000000000e+00  5.1542375596507557e-04 1.4514723159268759e-03 0.0000000000000000e+00  5.1542375597573610e-04 1.4514723159239290e-03 0.0000000000000000e+00  5.1542375597437749e-04 1.4514723159119594e-03 0.0000000000000000e+00  5.1542375598785976e-04 1.4514723159301719e-03 0.0000000000000000e+00  5.1542375599663898e-04 1.4514723159577561e-03 0.0000000000000000e+00  5.1542375599287647e-04 1.4514723159747564e-03 0.0000000000000000e+00  5.1542375599914728e-04 1.4514723159532437e-03 0.0000000000000000e+00  5.1542375599360798e-04 1.4514723159782237e-03 0.0000000000000000e+00  5.1542375597249607e-04 1.4514723159161245e-03 0.0000000000000000e+00  5.1542375598942741e-04 1.4514723159456109e-03 0.0000000000000000e+00  5.1542375598012571e-04 1.4514723159509886e-03 0.0000000000000000e+00  5.1542375596361244e-04 1.4514723158979099e-03 0.0000000000000000e+00  5.1542375598200691e-04 1.4514723159402333e-03 0.0000000000000000e+00  5.1542375596852453e-04 1.4514723159423149e-03 0.0000000000000000e+00  5.1542375596037241e-04 1.4514723159312166e-03 0.0000000000000000e+00  5.1542375597615417e-04 1.4514723159487334e-03 0.0000000000000000e+00  5.1542375597500448e-04 1.4514723159574070e-03 0.0000000000000000e+00  5.1542375596622526e-04 1.4514723159213287e-03 0.0000000000000000e+00  5.1542375597186908e-04 1.4514723159438762e-03 0.0000000000000000e+00  5.1542375597479545e-04 1.4514723159287841e-03 0.0000000000000000e+00  5.1542375597949861e-04 1.4514723159407537e-03 0.00000000000000