<?xml version="1.0"?>
<VTKFile type="UnstructuredGrid"  version="0.1"  >
<UnstructuredGrid>
<Piece  NumberOfPoints="2601" NumberOfCells="5000">
<Points>
<DataArray  type="Float64"  NumberOfComponents="3"  format="ascii">0 0 0  0.02 0 0  0.04 0 0  0.06 0 0  0.08 0 0  0.1 0 0  0.12 0 0  0.14 0 0  0.16 0 0  0.18 0 0  0.2 0 0  0.22 0 0  0.24 0 0  0.26 0 0  0.28 0 0  0.3 0 0  0.32 0 0  0.34 0 0  0.36 0 0  0.38 0 0  0.4 0 0  0.42 0 0  0.44 0 0  0.46 0 0  0.48 0 0  0.5 0 0  0.52 0 0  0.54 0 0  0.5600000000000001 0 0  0.58 0 0  0.6 0 0  0.62 0 0  0.64 0 0  0.66 0 0  0.68 0 0  0.7 0 0  0.72 0 0  0.74 0 0  0.76 0 0  0.78 0 0  0.8 0 0  0.82 0 0  0.84 0 0  0.86 0 0  0.88 0 0  0.9 0 0  0.92 0 0  0.9399999999999999 0 0  0.96 0 0  0.98 0 0  1 0 0  0 0.01313563088723984 0  0.02 0.01313563088723984 0  0.04 0.01313563088723984 0  0.06 0.01313563088723984 0  0.08 0.01313563088723984 0  0.1 0.01313563088723984 0  0.12 0.01313563088723984 0  0.14 0.01313563088723984 0  0.16 0.01313563088723984 0  0.18 0.01313563088723984 0  0.2 0.01313563088723984 0  0.22 0.01313563088723984 0  0.24 0.01313563088723984 0  0.26 0.01313563088723984 0  0.28 0.01313563088723984 0  0.3 0.01313563088723984 0  0.32 0.01313563088723984 0  0.34 0.01313563088723984 0  0.36 0.01313563088723984 0  0.38 0.01313563088723984 0  0.4 0.01313563088723984 0  0.42 0.01313563088723984 0  0.44 0.01313563088723984 0  0.46 0.01313563088723984 0  0.48 0.01313563088723984 0  0.5 0.01313563088723984 0  0.52 0.01313563088723984 0  0.54 0.01313563088723984 0  0.5600000000000001 0.01313563088723984 0  0.58 0.01313563088723984 0  0.6 0.01313563088723984 0  0.62 0.01313563088723984 0  0.64 0.01313563088723984 0  0.66 0.01313563088723984 0  0.68 0.01313563088723984 0  0.7 0.01313563088723984 0  0.72 0.01313563088723984 0  0.74 0.01313563088723984 0  0.76 0.01313563088723984 0  0.78 0.01313563088723984 0  0.8 0.01313563088723984 0  0.82 0.01313563088723984 0  0.84 0.01313563088723984 0  0.86 0.01313563088723984 0  0.88 0.01313563088723984 0  0.9 0.01313563088723984 0  0.92 0.01313563088723984 0  0.9399999999999999 0.01313563088723984 0  0.96 0.01313563088723984 0  0.98 0.01313563088723984 0  1 0.01313563088723984 0  0 0.02664639863733726 0  0.02 0.02664639863733726 0  0.04 0.02664639863733726 0  0.06 0.02664639863733726 0  0.08 0.02664639863733726 0  0.1 0.02664639863733726 0  0.12 0.02664639863733726 0  0.14 0.02664639863733726 0  0.16 0.02664639863733726 0  0.18 0.02664639863733726 0  0.2 0.02664639863733726 0  0.22 0.02664639863733726 0  0.24 0.02664639863733726 0  0.26 0.02664639863733726 0  0.28 0.02664639863733726 0  0.3 0.02664639863733726 0  0.32 0.02664639863733726 0  0.34 0.02664639863733726 0  0.36 0.02664639863733726 0  0.38 0.02664639863733726 0  0.4 0.02664639863733726 0  0.42 0.02664639863733726 0  0.44 0.02664639863733726 0  0.46 0.02664639863733726 0  0.48 0.02664639863733726 0  0.5 0.02664639863733726 0  0.52 0.02664639863733726 0  0.54 0.02664639863733726 0  0.5600000000000001 0.02664639863733726 0  0.58 0.02664639863733726 0  0.6 0.02664639863733726 0  0.62 0.02664639863733726 0  0.64 0.02664639863733726 0  0.66 0.02664639863733726 0  0.68 0.02664639863733726 0  0.7 0.02664639863733726 0  0.72 0.02664639863733726 0  0.74 0.02664639863733726 0  0.76 0.02664639863733726 0  0.78 0.02664639863733726 0  0.8 0.02664639863733726 0  0.82 0.02664639863733726 0  0.84 0.02664639863733726 0  0.86 0.02664639863733726 0  0.88 0.02664639863733726 0  0.9 0.02664639863733726 0  0.92 0.02664639863733726 0  0.9399999999999999 0.02664639863733726 0  0.96 0.02664639863733726 0  0.98 0.02664639863733726 0  1 0.02664639863733726 0  0 0.04101652939099896 0  0.02 0.04101652939099896 0  0.04 0.04101652939099896 0  0.06 0.04101652939099896 0  0.08 0.04101652939099896 0  0.1 0.04101652939099896 0  0.12 0.04101652939099896 0  0.14 0.04101652939099896 0  0.16 0.04101652939099896 0  0.18 0.04101652939099896 0  0.2 0.04101652939099896 0  0.22 0.04101652939099896 0  0.24 0.04101652939099896 0  0.26 0.04101652939099896 0  0.28 0.04101652939099896 0  0.3 0.04101652939099896 0  0.32 0.04101652939099896 0  0.34 0.04101652939099896 0  0.36 0.04101652939099896 0  0.38 0.04101652939099896 0  0.4 0.04101652939099896 0  0.42 0.04101652939099896 0  0.44 0.04101652939099896 0  0.46 0.04101652939099896 0  0.48 0.04101652939099896 0  0.5 0.04101652939099896 0  0.52 0.04101652939099896 0  0.54 0.04101652939099896 0  0.5600000000000001 0.04101652939099896 0  0.58 0.04101652939099896 0  0.6 0.04101652939099896 0  0.62 0.04101652939099896 0  0.64 0.04101652939099896 0  0.66 0.04101652939099896 0  0.68 0.04101652939099896 0  0.7 0.04101652939099896 0  0.72 0.04101652939099896 0  0.74 0.04101652939099896 0  0.76 0.04101652939099896 0  0.78 0.04101652939099896 0  0.8 0.04101652939099896 0  0.82 0.04101652939099896 0  0.84 0.04101652939099896 0  0.86 0.04101652939099896 0  0.88 0.04101652939099896 0  0.9 0.04101652939099896 0  0.92 0.04101652939099896 0  0.9399999999999999 0.04101652939099896 0  0.96 0.04101652939099896 0  0.98 0.04101652939099896 0  1 0.04101652939099896 0  0 0.05705811164099547 0  0.02 0.05705811164099547 0  0.04 0.05705811164099547 0  0.06 0.05705811164099547 0  0.08 0.05705811164099547 0  0.1 0.05705811164099547 0  0.12 0.05705811164099547 0  0.14 0.05705811164099547 0  0.16 0.05705811164099547 0  0.18 0.05705811164099547 0  0.2 0.05705811164099547 0  0.22 0.05705811164099547 0  0.24 0.05705811164099547 0  0.26 0.05705811164099547 0  0.28 0.05705811164099547 0  0.3 0.05705811164099547 0  0.32 0.05705811164099547 0  0.34 0.05705811164099547 0  0.36 0.05705811164099547 0  0.38 0.05705811164099547 0  0.4 0.05705811164099547 0  0.42 0.05705811164099547 0  0.44 0.05705811164099547 0  0.46 0.05705811164099547 0  0.48 0.05705811164099547 0  0.5 0.05705811164099547 0  0.52 0.05705811164099547 0  0.54 0.05705811164099547 0  0.5600000000000001 0.05705811164099547 0  0.58 0.05705811164099547 0  0.6 0.05705811164099547 0  0.62 0.05705811164099547 0  0.64 0.05705811164099547 0  0.66 0.05705811164099547 0  0.68 0.05705811164099547 0  0.7 0.05705811164099547 0  0.72 0.05705811164099547 0  0.74 0.05705811164099547 0  0.76 0.05705811164099547 0  0.78 0.05705811164099547 0  0.8 0.05705811164099547 0  0.82 0.05705811164099547 0  0.84 0.05705811164099547 0  0.86 0.05705811164099547 0  0.88 0.05705811164099547 0  0.9 0.05705811164099547 0  0.92 0.05705811164099547 0  0.9399999999999999 0.05705811164099547 0  0.96 0.05705811164099547 0  0.98 0.05705811164099547 0  1 0.05705811164099547 0  0 0.07667714377545 0  0.02 0.07667714377545 0  0.04 0.07667714377545 0  0.06 0.07667714377545 0  0.08 0.07667714377545 0  0.1 0.07667714377545 0  0.12 0.07667714377545 0  0.14 0.07667714377545 0  0.16 0.07667714377545 0  0.18 0.07667714377545 0  0.2 0.07667714377545 0  0.22 0.07667714377545 0  0.24 0.07667714377545 0  0.26 0.07667714377545 0  0.28 0.07667714377545 0  0.3 0.07667714377545 0  0.32 0.07667714377545 0  0.34 0.07667714377545 0  0.36 0.07667714377545 0  0.38 0.07667714377545 0  0.4 0.07667714377545 0  0.42 0.07667714377545 0  0.44 0.07667714377545 0  0.46 0.07667714377545 0  0.48 0.07667714377545 0  0.5 0.07667714377545 0  0.52 0.07667714377545 0  0.54 0.07667714377545 0  0.5600000000000001 0.07667714377545 0  0.58 0.07667714377545 0  0.6 0.07667714377545 0  0.62 0.07667714377545 0  0.64 0.07667714377545 0  0.66 0.07667714377545 0  0.68 0.07667714377545 0  0.7 0.07667714377545 0  0.72 0.07667714377545 0  0.74 0.07667714377545 0  0.76 0.07667714377545 0  0.78 0.07667714377545 0  0.8 0.07667714377545 0  0.82 0.07667714377545 0  0.84 0.07667714377545 0  0.86 0.07667714377545 0  0.88 0.07667714377545 0  0.9 0.07667714377545 0  0.92 0.07667714377545 0  0.9399999999999999 0.07667714377545 0  0.96 0.07667714377545 0  0.98 0.07667714377545 0  1 0.07667714377545 0  0 0.1098730133816912 0  0.02 0.1098730133816912 0  0.04 0.1098730133816912 0  0.06 0.1098730133816912 0  0.08 0.1098730133816912 0  0.1 0.1098730133816912 0  0.12 0.1098730133816912 0  0.14 0.1098730133816912 0  0.16 0.1098730133816912 0  0.18 0.1098730133816912 0  0.2 0.1098730133816912 0  0.22 0.1098730133816912 0  0.24 0.1098730133816912 0  0.26 0.1098730133816912 0  0.28 0.1098730133816912 0  0.3 0.1098730133816912 0  0.32 0.1098730133816912 0  0.34 0.1098730133816912 0  0.36 0.1098730133816912 0  0.38 0.1098730133816912 0  0.4 0.1098730133816912 0  0.42 0.1098730133816912 0  0.44 0.1098730133816912 0  0.46 0.1098730133816912 0  0.48 0.1098730133816912 0  0.5 0.1098730133816912 0  0.52 0.1098730133816912 0  0.54 0.1098730133816912 0  0.5600000000000001 0.1098730133816912 0  0.58 0.1098730133816912 0  0.6 0.1098730133816912 0  0.62 0.1098730133816912 0  0.64 0.1098730133816912 0  0.66 0.1098730133816912 0  0.68 0.1098730133816912 0  0.7 0.1098730133816912 0  0.72 0.1098730133816912 0  0.74 0.1098730133816912 0  0.76 0.1098730133816912 0  0.78 0.1098730133816912 0  0.8 0.1098730133816912 0  0.82 0.1098730133816912 0  0.84 0.1098730133816912 0  0.86 0.1098730133816912 0  0.88 0.1098730133816912 0  0.9 0.1098730133816912 0  0.92 0.1098730133816912 0  0.9399999999999999 0.1098730133816912 0  0.96 0.1098730133816912 0  0.98 0.1098730133816912 0  1 0.1098730133816912 0  0 0.1603283563168221 0  0.02 0.1603283563168221 0  0.04 0.1603283563168221 0  0.06 0.1603283563168221 0  0.08 0.1603283563168221 0  0.1 0.1603283563168221 0  0.12 0.1603283563168221 0  0.14 0.1603283563168221 0  0.16 0.1603283563168221 0  0.18 0.1603283563168221 0  0.2 0.1603283563168221 0  0.22 0.1603283563168221 0  0.24 0.1603283563168221 0  0.26 0.1603283563168221 0  0.28 0.1603283563168221 0  0.3 0.1603283563168221 0  0.32 0.1603283563168221 0  0.34 0.1603283563168221 0  0.36 0.1603283563168221 0  0.38 0.1603283563168221 0  0.4 0.1603283563168221 0  0.42 0.1603283563168221 0  0.44 0.1603283563168221 0  0.46 0.1603283563168221 0  0.48 0.1603283563168221 0  0.5 0.1603283563168221 0  0.52 0.1603283563168221 0  0.54 0.1603283563168221 0  0.5600000000000001 0.1603283563168221 0  0.58 0.1603283563168221 0 
[...]
<PointData  Vectors="u_paraw"> 
<DataArray  type="Float64"  Name="u_paraw"  NumberOfComponents="3" format="ascii">7.2061058815345836e-06 2.2779924459119831e-04 0.0000000000000000e+00  7.2061058786292107e-06 2.2779924458737107e-04 0.0000000000000000e+00  7.2061058860247053e-06 2.2779924458313184e-04 0.0000000000000000e+00  7.2061058856780435e-06 2.2779924459466773e-04 0.0000000000000000e+00  7.2061058792895228e-06 2.2779924457875164e-04 0.0000000000000000e+00  7.2061058896399148e-06 2.2779924460007803e-04 0.0000000000000000e+00  7.2061058786952403e-06 2.2779924459643479e-04 0.0000000000000000e+00  7.2061058782495298e-06 2.2779924457984682e-04 0.0000000000000000e+00  7.2061058745847969e-06 2.2779924459779036e-04 0.0000000000000000e+00  7.2061058824094967e-06 2.2779924459292197e-04 0.0000000000000000e+00  7.2061058816831532e-06 2.2779924459317166e-04 0.0000000000000000e+00  7.2061058784146072e-06 2.2779924458580993e-04 0.0000000000000000e+00  7.2061058840932923e-06 2.2779924459099209e-04 0.0000000000000000e+00  7.2061058839777375e-06 2.2779924456300883e-04 0.0000000000000000e+00  7.2061058972335050e-06 2.2779924460781956e-04 0.0000000000000000e+00  7.2061058893757904e-06 2.2779924457697336e-04 0.0000000000000000e+00  7.2061058838786914e-06 2.2779924458345689e-04 0.0000000000000000e+00  7.2061058800323724e-06 2.2779924458401048e-04 0.0000000000000000e+00  7.2061058931725851e-06 2.2779924457965134e-04 0.0000000000000000e+00  7.2061058926938590e-06 2.2779924458343520e-04 0.0000000000000000e+00  7.2061058923306869e-06 2.2779924457926167e-04 0.0000000000000000e+00  7.2061058749149525e-06 2.2779924457437127e-04 0.0000000000000000e+00  7.2061058901351495e-06 2.2779924457923934e-04 0.0000000000000000e+00  7.2061058876094548e-06 2.2779924459050485e-04 0.0000000000000000e+00  7.2061058790088889e-06 2.2779924458842253e-04 0.0000000000000000e+00  7.2061058876424705e-06 2.2779924458070301e-04 0.0000000000000000e+00  7.2061058726698917e-06 2.2779924458507235e-04 0.0000000000000000e+00  7.2061058852983627e-06 2.2779924458663360e-04 0.0000000000000000e+00  7.2061058779854046e-06 2.2779924458710105e-04 0.0000000000000000e+00  7.2061058884843687e-06 2.2779924459069936e-04 0.0000000000000000e+00  7.2061058815510906e-06 2.2779924456964415e-04 0.0000000000000000e+00  7.2061058846050349e-06 2.2779924458599392e-04 0.0000000000000000e+00  7.2061058767968429e-06 2.2779924458630834e-04 0.0000000000000000e+00  7.2061058860907366e-06 2.2779924458514824e-04 0.0000000000000000e+00  7.2061058854469323e-06 2.2779924458676495e-04 0.0000000000000000e+00  7.2061058882037357e-06 2.2779924458964768e-04 0.0000000000000000e+00  7.2061058862723227e-06 2.2779924458518077e-04 0.0000000000000000e+00  7.2061058797187246e-06 2.2779924459386523e-04 0.0000000000000000e+00  7.2061058851332844e-06 2.2779924461036678e-04 0.0000000000000000e+00  7.2061058795536463e-06 2.2779924457904418e-04 0.0000000000000000e+00  7.2061058904983208e-06 2.2779924460777679e-04 0.0000000000000000e+00  7.2061058895738835e-06 2.2779924459938382e-04 0.0000000000000000e+00  7.2061058759054212e-06 2.2779924458865022e-04 0.0000000000000000e+00  7.2061058906799069e-06 2.2779924459433143e-04 0.0000000000000000e+00  7.2061058802964976e-06 2.2779924458010670e-04 0.0000000000000000e+00  7.2061058695994396e-06 2.2779924458498561e-04 0.0000000000000000e+00  7.2061058953185998e-06 2.2779924460247504e-04 0.0000000000000000e+00  7.2061058865859713e-06 2.2779924459228229e-04 0.0000000000000000e+00  7.2061058884513530e-06 2.2779924460277737e-04 0.0000000000000000e+00  7.2061058774076316e-06 2.2779924458343520e-04 0.0000000000000000e+00  7.2061058815345828e-06 3.6488096490566268e-15 0.0000000000000000e+00  3.6469357567189764e-05 5.3219734987945677e-04 0.0000000000000000e+00  3.6469357563209502e-05 5.3219734988069276e-04 0.0000000000000000e+00  3.6469357557913181e-05 5.3219734988333843e-04 0.0000000000000000e+00  3.6469357566194711e-05 5.3219734986926527e-04 0.0000000000000000e+00  3.6469357556147748e-05 5.3219734985634158e-04 0.0000000000000000e+00  3.6469357576209567e-05 5.3219734988550706e-04 0.0000000000000000e+00  3.6469357565360139e-05 5.3219734987511964e-04 0.0000000000000000e+00  3.6469357554992192e-05 5.3219734987095706e-04 0.0000000000000000e+00  3.6469357571426826e-05 5.3219734988941018e-04 0.0000000000000000e+00  3.6469357561090985e-05 5.3219734986421257e-04 0.0000000000000000e+00  3.6469357559357644e-05 5.3219734988073657e-04 0.0000000000000000e+00  3.6469357561187275e-05 5.3219734988071488e-04 0.0000000000000000e+00  3.6469357566740390e-05 5.3219734987949982e-04 0.0000000000000000e+00  3.6469357559550232e-05 5.3219734987015399e-04 0.0000000000000000e+00  3.6469357570560156e-05 5.3219734985629930e-04 0.0000000000000000e+00  3.6469357549567474e-05 5.3219734985254655e-04 0.0000000000000000e+00  3.6469357569693485e-05 5.3219734986072144e-04 0.0000000000000000e+00  3.6469357574668821e-05 5.3219734987902418e-04 0.0000000000000000e+00  3.6469357566387299e-05 5.3219734985547390e-04 0.0000000000000000e+00  3.6469357574283631e-05 5.3219734985850966e-04 0.0000000000000000e+00  3.6469357579451556e-05 5.3219734987488253e-04 0.0000000000000000e+00  3.6469357560673696e-05 5.3219734987076115e-04 0.0000000000000000e+00  3.6469357562984815e-05 5.3219734985814103e-04 0.0000000000000000e+00  3.6469357569918179e-05 5.3219734986876762e-04 0.0000000000000000e+00  3.6469357572774984e-05 5.3219734987884930e-04 0.0000000000000000e+00  3.6469357563690990e-05 5.3219734987223566e-04 0.0000000000000000e+00  3.6469357563305807e-05 5.3219734987902277e-04 0.0000000000000000e+00  3.6469357559518133e-05 5.3219734986805064e-04 0.0000000000000000e+00  3.6469357567414465e-05 5.3219734987178322e-04 0.0000000000000000e+00  3.6469357570078675e-05 5.3219734986950347e-04 0.0000000000000000e+00  3.6469357568377433e-05 5.3219734986716160e-04 0.0000000000000000e+00  3.6469357564653958e-05 5.3219734985896503e-04 0.0000000000000000e+00  3.6469357562952716e-05 5.3219734986436435e-04 0.0000000000000000e+00  3.6469357567831754e-05 5.3219734987047925e-04 0.0000000000000000e+00  3.6469357568666326e-05 5.3219734986605864e-04 0.0000000000000000e+00  3.6469357559453934e-05 5.3219734986477635e-04 0.0000000000000000e+00  3.6469357564525568e-05 5.3219734985870482e-04 0.0000000000000000e+00  3.6469357565424331e-05 5.3219734986260795e-04 0.0000000000000000e+00  3.6469357574893509e-05 5.3219734986735675e-04 0.0000000000000000e+00  3.6469357556661334e-05 5.3219734986566540e-04 0.0000000000000000e+00  3.6469357575567591e-05 5.3219734987009187e-04 0.0000000000000000e+00  3.6469357569565095e-05 5.3219734987600869e-04 0.0000000000000000e+00  3.6469357562728028e-05 5.3219734986271637e-04 0.0000000000000000e+00  3.6469357573031778e-05 5.3219734987616047e-04 0.0000000000000000e+00  3.6469357553515637e-05 5.3219734987011063e-04 0.0000000000000000e+00  3.6469357561508267e-05 5.3219734986727002e-04 0.0000000000000000e+00  3.6469357573063877e-05 5.3219734987922085e-04 0.0000000000000000e+00  3.6469357567607060e-05 5.3219734986835422e-04 0.0000000000000000e+00  3.6469357573224366e-05 5.3219734988494251e-04 0.0000000000000000e+00  3.6469357560384803e-05 5.3219734987835056e-04 0.0000000000000000e+00  3.6469357567189771e-05 4.3556396853081336e-04 0.0000000000000000e+00  -1.3053744715225898e-05 6.5185995996083074e-05 0.0000000000000000e+00  -1.3053744721986068e-05 6.5185995985891573e-05 0.0000000000000000e+00  -1.3053744716312355e-05 6.5185995985110961e-05 0.0000000000000000e+00  -1.3053744723072524e-05 6.5185995980644008e-05 0.0000000000000000e+00  -1.3053744738826132e-05 6.5185995968717784e-05 0.0000000000000000e+00  -1.3053744717881680e-05 6.5185995968587747e-05 0.0000000000000000e+00  -1.3053744714803388e-05 6.5185995975266338e-05 0.0000000000000000e+00  -1.3053744721986068e-05 6.5185995977825150e-05 0.0000000000000000e+00  -1.3053744720899613e-05 6.5185995981207861e-05 0.0000000000000000e+00  -1.3053744729108389e-05 6.5185995971363210e-05 0.0000000000000000e+00  -1.3053744714984465e-05 6.5185995990401895e-05 0.0000000000000000e+00  -1.3053744729048031e-05 6.5185995979993554e-05 0.0000000000000000e+00  -1.3053744722106786e-05 6.5185995965551886e-05 0.0000000000000000e+00  -1.3053744713777291e-05 6.5185995994478400e-05 0.0000000000000000e+00  -1.3053744709612545e-05 6.5185995988884093e-05 0.0000000000000000e+00  -1.3053744720175308e-05 6.5185995970365744e-05 0.0000000000000000e+00  -1.3053744711544021e-05 6.5185995979169466e-05 0.0000000000000000e+00  -1.3053744713234063e-05 6.5185995984200340e-05 0.0000000000000000e+00  -1.3053744728987671e-05 6.5185995964511052e-05 0.0000000000000000e+00  -1.3053744705206363e-05 6.5185995981251134e-05 0.0000000000000000e+00  -1.3053744718002398e-05 6.5185995960000947e-05 0.0000000000000000e+00  -1.3053744716674506e-05 6.5185995989100758e-05 0.0000000000000000e+00  -1.3053744723857186e-05 6.5185995979646515e-05 0.0000000000000000e+00  -1.3053744715769128e-05 6.5185995970105712e-05 0.0000000000000000e+00  -1.3053744719390646e-05 6.5185995975830123e-05 0.0000000000000000e+00  -1.3053744724581491e-05 6.5185995973228038e-05 0.0000000000000000e+00  -1.3053744716855583e-05 6.5185995975179602e-05 0.0000000000000000e+00  -1.3053744717579886e-05 6.5185995994781977e-05 0.0000000000000000e+00  -1.3053744726633684e-05 6.5185995983940321e-05 0.0000000000000000e+00  -1.3053744740938685e-05 6.5185995946686769e-05 0.0000000000000000e+00  -1.3053744715889845e-05 6.5185995982682281e-05 0.0000000000000000e+00  -1.3053744727961576e-05 6.5185995968500916e-05 0.0000000000000000e+00  -1.3053744709371110e-05 6.5185995981164398e-05 0.0000000000000000e+00  -1.3053744732005604e-05 6.5185995966549352e-05 0.0000000000000000e+00  -1.3053744732065964e-05 6.5185995968588018e-05 0.0000000000000000e+00  -1.3053744729229106e-05 6.5185995980730717e-05 0.0000000000000000e+00  -1.3053744724279696e-05 6.5185995976307172e-05 0.0000000000000000e+00  -1.3053744715467333e-05 6.5185995971753523e-05 0.0000000000000000e+00  -1.3053744716674506e-05 6.5185995958439520e-05 0.0000000000000000e+00  -1.3053744717278093e-05 6.5185995971536682e-05 0.0000000000000000e+00  -1.3053744716614148e-05 6.5185995971190104e-05 0.0000000000000000e+00  -1.3053744718545625e-05 6.5185995988320132e-05 0.0000000000000000e+00  -1.3053744731402019e-05 6.5185995972577516e-05 0.0000000000000000e+00  -1.3053744722650013e-05 6.5185995966159040e-05 0.0000000000000000e+00  -1.3053744726754401e-05 6.5185995971753523e-05 0.0000000000000000e+00  -1.3053744716191638e-05 6.5185995987235930e-05 0.0000000000000000e+00  -1.3053744718304191e-05 6.5185995981815285e-05 0.0000000000000000e+00  -1.3053744735083896e-05 6.5185995978302104e-05 0.0000000000000000e+00  -1.3053744719933873e-05 6.5185995968934597e-05 0.0000000000000000e+00  -1.3053744717881680e-05 6.5185995983549642e-05 0.0000000000000000e+00  -1.3053744715225898e-05 4.9641971557569799e-04 0.0000000000000000e+00  -1.4150213409593709e-05 8.6585544291015171e-05 0.0000000000000000e+00  -1.4150213415865782e-05 8.6585544283816068e-05 0.0000000000000000e+00  -1.4150213421164601e-05 8.6585544289887614e-05 0.0000000000000000e+00  -1.4150213421705296e-05 8.6585544279652718e-05 0.0000000000000000e+00  -1.4150213400942574e-05 8.6585544285810987e-05 0.0000000000000000e+00  -1.4150213375097310e-05 8.6585544315995243e-05 0.0000000000000000e+00  -1.4150213408836735e-05 8.6585544282861903e-05 0.0000000000000000e+00  -1.4150213412297186e-05 8.6585544286157999e-05 0.0000000000000000e+00  -1.4150213398455372e-05 8.6585544278438480e-05 0.0000000000000000e+00  -1.4150213417163451e-05 8.6585544279739400e-05 0.0000000000000000e+00  -1.4150213413702997e-05 8.6585544252591100e-05 0.0000000000000000e+00  -1.4150213388830985e-05 8.6585544287979459e-05 0.0000000000000000e+00  -1.4150213411323935e-05 8.6585544293443716e-05 0.0000000000000000e+00  -1.4150213406782090e-05 8.6585544282948639e-05 0.0000000000000000e+00  -1.4150213406782089e-05 8.6585544292316376e-05 0.0000000000000000e+00  -1.4150213419758791e-05 8.6585544272713770e-05 0.0000000000000000e+00  -1.4150213395427476e-05 8.6585544286591558e-05 0.0000000000000000e+00  -1.4150213406782089e-05 8.6585544290408180e-05 0.0000000000000000e+00  -1.4150213417704146e-05 8.6585544273234187e-05 0.0000000000000000e+00  -1.4150213398130957e-05 8.6585544285550724e-05 0.0000000000000000e+00  -1.4150213402132105e-05 8.6585544284596856e-05 0.0000000000000000e+00  -1.4150213400834435e-05 8.6585544276183217e-05 0.0000000000000000e+00  -1.4150213415541363e-05 8.6585544289106907e-05 0.0000000000000000e+00  -1.4150213415649500e-05 8.6585544279739631e-05 0.0000000000000000e+00  -1.4150213413054163e-05 8.6585544278785302e-05 0.0000000000000000e+00  -1.4150213401158854e-05 8.6585544272540298e-05 0.0000000000000000e+00  -1.4150213410026265e-05 8.6585544295698856e-05 0.0000000000000000e+00  -1.4150213418569260e-05 8.6585544273494396e-05 0.0000000000000000e+00  -1.4150213409701848e-05 8.6585544284770573e-05 0.0000000000000000e+00  -1.4150213419866930e-05 8.6585544273147451e-05 0.0000000000000000e+00  -1.4150213400510018e-05 8.6585544296999899e-05 0.0000000000000000e+00  -1.4150213413594858e-05 8.6585544269504532e-05 0.0000000000000000e+00  -1.4150213400834435e-05 8.6585544286591558e-05 0.0000000000000000e+00  -1.4150213412513466e-05 8.6585544277744468e-05 0.0000000000000000e+00  -1.4150213402889079e-05 8.6585544286245088e-05 0.0000000000000000e+00  -1.4150213406349534e-05 8.6585544279218983e-05 0.0000000000000000e+00  -1.4150213420083210e-05 8.6585544278958775e-05 0.0000000000000000e+00  -1.4150213410026265e-05 8.6585544261785012e-05 0.0000000000000000e+00  -1.4150213413594858e-05 8.6585544277570996e-05 0.0000000000000000e+00  -1.4150213401915827e-05 8.6585544273841341e-05 0.0000000000000000e+00  -1.4150213393480971e-05 8.6585544299689195e-05 0.0000000000000000e+00  -1.4150213400726296e-05 8.6585544273320923e-05 0.0000000000000000e+00  -1.4150213403321637e-05 8.6585544302290806e-05 0.0000000000000000e+00  -1.4150213409593709e-05 8.6585544277310787e-05 0.0000000000000000e+00  -1.4150213401375132e-05 8.6585544289887533e-05 0.0000000000000000e+00  -1.4150213402023966e-05 8.6585544272280089e-05 0.0000000000000000e+00  -1.4150213393156554e-05 8.6585544280780709e-05 0.0000000000000000e+00  -1.4150213394886781e-05 8.6585544291622256e-05 0.0000000000000000e+00  -1.4150213406565812e-05 8.6585544278958775e-05 0.0000000000000000e+00  -1.4150213398779791e-05 8.6585544296306010e-05 0.0000000000000000e+00  -1.4150213409593709e-05 -2.9755997968412856e-04 0.0000000000000000e+00  -7.7330947477004169e-06 5.7085704241038860e-04 0.0000000000000000e+00  -7.7330947468162127e-06 5.7085704239694449e-04 0.0000000000000000e+00  -7.7330947549508935e-06 5.7085704239416915e-04 0.0000000000000000e+00  -7.7330947504414511e-06 5.7085704239789848e-04 0.0000000000000000e+00  -7.7330947445172806e-06 5.7085704241316404e-04 0.0000000000000000e+00  -7.7330947718391974e-06 5.7085704238124557e-04 0.0000000000000000e+00  -7.7330947689213230e-06 5.7085704240457684e-04 0.0000000000000000e+00  -7.7330947551277337e-06 5.7085704242400650e-04 0.0000000000000000e+00  -7.7330947827149124e-06 5.7085704239902648e-04 0.0000000000000000e+00  -7.7330947670644930e-06 5.7085704238610203e-04 0.0000000000000000e+00  -7.7330947683908009e-06 5.7085704239468967e-04 0.0000000000000000e+00  -7.7330947695402652e-06 5.7085704240110815e-04 0.0000000000000000e+00  -7.7330947781170481e-06 5.7085704238133154e-04 0.0000000000000000e+00  -7.7330947731655036e-06 5.7085704236641292e-04 0.0000000000000000e+00  -7.7330947653845048e-06 5.7085704240492541e-04 0.0000000000000000e+00  -7.7330947671529147e-06 5.7085704238072439e-04 0.0000000000000000e+00  -7.7330947467277926e-06 5.7085704241168920e-04 0.0000000000000000e+00  -7.7330947605213803e-06 5.7085704240241006e-04 0.0000000000000000e+00  -7.7330947607866422e-06 5.7085704238497446e-04 0.0000000000000000e+00  -7.7330947447825425e-06 5.7085704239902572e-04 0.0000000000000000e+00  -7.7330947611403242e-06 5.7085704238922616e-04 0.0000000000000000e+00  -7.7330947696286870e-06 5.7085704237890293e-04 0.0000000000000000e+00  -7.7330947573382457e-06 5.7085704239104600e-04 0.0000000000000000e+00  -7.7330947540666894e-06 5.7085704241021632e-04 0.0000000000000000e+00  -7.7330947679486988e-06 5.7085704240197475e-04 0.0000000000000000e+00  -7.7330947636160965e-06 5.7085704240336253e-04 0.0000000000000000e+00  -7.7330947682139590e-06 5.7085704237447939e-04 0.0000000000000000e+00  -7.7330947314310552e-06 5.7085704240466357e-04 0.0000000000000000e+00  -7.7330947385046918e-06 5.7085704239156967e-04 0.0000000000000000e+00  -7.7330947410688841e-06 5.7085704239486239e-04 0.0000000000000000e+00  -7.7330947454899065e-06 5.7085704239755121e-04 0.0000000000000000e+00  -7.7330947593719159e-06 5.7085704239278072e-04 0.0000000000000000e+00  -7.7330947636160965e-06 5.7085704238783676e-04 0.0000000000000000e+00  -7.7330947538898475e-06 5.7085704238965822e-04 0.0000000000000000e+00  -7.7330947393004758e-06 5.7085704239972287e-04 0.0000000000000000e+00  -7.7330947486730411e-06 5.7085704239243377e-04 0.0000000000000000e+00  -7.7330947476119968e-06 5.7085704240821976e-04 0.0000000000000000e+00  -7.7330947676834369e-06 5.7085704238410710e-04 0.0000000000000000e+00  -7.7330947511488150e-06 5.7085704237491307e-04 0.0000000000000000e+00  -7.7330947545972115e-06 5.7085704238549488e-04 0.0000000000000000e+00  -7.7330947394773160e-06 5.7085704238844716e-04 0.0000000000000000e+00  -7.7330947461088487e-06 5.7085704240050024e-04 0.0000000000000000e+00  -7.7330947521214393e-06 5.7085704239382155e-04 0.0000000000000000e+00  -7.7330947506182912e-06 5.7085704240006656e-04 0.0000000000000000e+00  -7.7330947599024381e-06 5.7085704239139294e-04 0.0000000000000000e+00  -7.7330947487614628e-06 5.7085704238089786e-04 0.0000000000000000e+00  -7.7330947490267231e-06 5.7085704239798814e-04 0.0000000000000000e+00  -7.7330947522098593e-06 5.7085704240128086e-04 0.0000000000000000e+00  -7.7330947452246446e-06 5.7085704240145434e-04 0.0000000000000000e+00  -7.7330947500877691e-06 5.7085704240110739e-04 0.0000000000000000e+00  -7.7330947477004169e-06 5.4182579713725270e-04 0.0000000000000000e+00  1.7310940838387941e-04 1.2795710752955963e-03 0.0000000000000000e+00  1.7310940837635437e-04 1.2795710753096476e-03 0.0000000000000000e+00  1.7310940837844465e-04 1.2795710753257807e-03 0.0000000000000000e+00  1.7310940837133768e-04 1.2795710753063514e-03 0.0000000000000000e+00  1.7310940834876256e-04 1.2795710753233517e-03 0.0000000000000000e+00  1.7310940834583616e-04 1.2795710753278631e-03 0.0000000000000000e+00  1.7310940835806434e-04 1.2795710753013196e-03 0.0000000000000000e+00  1.7310940836182687e-04 1.2795710752865766e-03 0.0000000000000000e+00  1.7310940837300990e-04 1.2795710753054851e-03 0.0000000000000000e+00  1.7310940838335682e-04 1.2795710752926460e-03 0.0000000000000000e+00  1.7310940840258748e-04 1.2795710753379244e-03 0.0000000000000000e+00  1.7310940838931416e-04 1.2795710753240467e-03 0.0000000000000000e+00  1.7310940839412181e-04 1.2795710752921256e-03 0.0000000000000000e+00  1.7310940838795544e-04 1.2795710753325446e-03 0.0000000000000000e+00  1.7310940838377486e-04 1.2795710752943842e-03 0.0000000000000000e+00  1.7310940837206925e-04 1.2795710752865745e-03 0.0000000000000000e+00  1.7310940837813110e-04 1.2795710753283813e-03 0.0000000000000000e+00  1.7310940835534695e-04 1.2795710752976802e-03 0.0000000000000000e+00  1.7310940836997896e-04 1.2795710752824111e-03 0.0000000000000000e+00  1.7310940837050154e-04 1.2795710753257792e-03 0.0000000000000000e+00  1.7310940835419728e-04 1.2795710752976802e-03 0.0000000000000000e+00  1.7310940837206925e-04 1.2795710753216159e-03 0.0000000000000000e+00  1.7310940836538034e-04 1.2795710753445142e-03 0.0000000000000000e+00  1.7310940836412616e-04 1.2795710752988945e-03 0.0000000000000000e+00  1.7310940835586953e-04 1.2795710753150239e-03 0.0000000000000000e+00  1.7310940835618305e-04 1.2795710752877888e-03 0.0000000000000000e+00  1.7310940837081509e-04 1.2795710752839724e-03 0.00000000000000