<?xml version="1.0"?>
<VTKFile type="UnstructuredGrid"  version="0.1"  >
<UnstructuredGrid>
<Piece  NumberOfPoints="2601" NumberOfCells="5000">
<Points>
<DataArray  type="Float64"  NumberOfComponents="3"  format="ascii">0 0 0  0.02 0 0  0.04 0 0  0.06 0 0  0.08 0 0  0.1 0 0  0.12 0 0  0.14 0 0  0.16 0 0  0.18 0 0  0.2 0 0  0.22 0 0  0.24 0 0  0.26 0 0  0.28 0 0  0.3 0 0  0.32 0 0  0.34 0 0  0.36 0 0  0.38 0 0  0.4 0 0  0.42 0 0  0.44 0 0  0.46 0 0  0.48 0 0  0.5 0 0  0.52 0 0  0.54 0 0  0.5600000000000001 0 0  0.58 0 0  0.6 0 0  0.62 0 0  0.64 0 0  0.66 0 0  0.68 0 0  0.7 0 0  0.72 0 0  0.74 0 0  0.76 0 0  0.78 0 0  0.8 0 0  0.82 0 0  0.84 0 0  0.86 0 0  0.88 0 0  0.9 0 0  0.92 0 0  0.9399999999999999 0 0  0.96 0 0  0.98 0 0  1 0 0  0 0.01313563088723984 0  0.02 0.01313563088723984 0  0.04 0.01313563088723984 0  0.06 0.01313563088723984 0  0.08 0.01313563088723984 0  0.1 0.01313563088723984 0  0.12 0.01313563088723984 0  0.14 0.01313563088723984 0  0.16 0.01313563088723984 0  0.18 0.01313563088723984 0  0.2 0.01313563088723984 0  0.22 0.01313563088723984 0  0.24 0.01313563088723984 0  0.26 0.01313563088723984 0  0.28 0.01313563088723984 0  0.3 0.01313563088723984 0  0.32 0.01313563088723984 0  0.34 0.01313563088723984 0  0.36 0.01313563088723984 0  0.38 0.01313563088723984 0  0.4 0.01313563088723984 0  0.42 0.01313563088723984 0  0.44 0.01313563088723984 0  0.46 0.01313563088723984 0  0.48 0.01313563088723984 0  0.5 0.01313563088723984 0  0.52 0.01313563088723984 0  0.54 0.01313563088723984 0  0.5600000000000001 0.01313563088723984 0  0.58 0.01313563088723984 0  0.6 0.01313563088723984 0  0.62 0.01313563088723984 0  0.64 0.01313563088723984 0  0.66 0.01313563088723984 0  0.68 0.01313563088723984 0  0.7 0.01313563088723984 0  0.72 0.01313563088723984 0  0.74 0.01313563088723984 0  0.76 0.01313563088723984 0  0.78 0.01313563088723984 0  0.8 0.01313563088723984 0  0.82 0.01313563088723984 0  0.84 0.01313563088723984 0  0.86 0.01313563088723984 0  0.88 0.01313563088723984 0  0.9 0.01313563088723984 0  0.92 0.01313563088723984 0  0.9399999999999999 0.01313563088723984 0  0.96 0.01313563088723984 0  0.98 0.01313563088723984 0  1 0.01313563088723984 0  0 0.02664639863733726 0  0.02 0.02664639863733726 0  0.04 0.02664639863733726 0  0.06 0.02664639863733726 0  0.08 0.02664639863733726 0  0.1 0.02664639863733726 0  0.12 0.02664639863733726 0  0.14 0.02664639863733726 0  0.16 0.02664639863733726 0  0.18 0.02664639863733726 0  0.2 0.02664639863733726 0  0.22 0.02664639863733726 0  0.24 0.02664639863733726 0  0.26 0.02664639863733726 0  0.28 0.02664639863733726 0  0.3 0.02664639863733726 0  0.32 0.02664639863733726 0  0.34 0.02664639863733726 0  0.36 0.02664639863733726 0  0.38 0.02664639863733726 0  0.4 0.02664639863733726 0  0.42 0.02664639863733726 0  0.44 0.02664639863733726 0  0.46 0.02664639863733726 0  0.48 0.02664639863733726 0  0.5 0.02664639863733726 0  0.52 0.02664639863733726 0  0.54 0.02664639863733726 0  0.5600000000000001 0.02664639863733726 0  0.58 0.02664639863733726 0  0.6 0.02664639863733726 0  0.62 0.02664639863733726 0  0.64 0.02664639863733726 0  0.66 0.02664639863733726 0  0.68 0.02664639863733726 0  0.7 0.02664639863733726 0  0.72 0.02664639863733726 0  0.74 0.02664639863733726 0  0.76 0.02664639863733726 0  0.78 0.02664639863733726 0  0.8 0.02664639863733726 0  0.82 0.02664639863733726 0  0.84 0.02664639863733726 0  0.86 0.02664639863733726 0  0.88 0.02664639863733726 0  0.9 0.02664639863733726 0  0.92 0.02664639863733726 0  0.9399999999999999 0.02664639863733726 0  0.96 0.02664639863733726 0  0.98 0.02664639863733726 0  1 0.02664639863733726 0  0 0.04101652939099896 0  0.02 0.04101652939099896 0  0.04 0.04101652939099896 0  0.06 0.04101652939099896 0  0.08 0.04101652939099896 0  0.1 0.04101652939099896 0  0.12 0.04101652939099896 0  0.14 0.04101652939099896 0  0.16 0.04101652939099896 0  0.18 0.04101652939099896 0  0.2 0.04101652939099896 0  0.22 0.04101652939099896 0  0.24 0.04101652939099896 0  0.26 0.04101652939099896 0  0.28 0.04101652939099896 0  0.3 0.04101652939099896 0  0.32 0.04101652939099896 0  0.34 0.04101652939099896 0  0.36 0.04101652939099896 0  0.38 0.04101652939099896 0  0.4 0.04101652939099896 0  0.42 0.04101652939099896 0  0.44 0.04101652939099896 0  0.46 0.04101652939099896 0  0.48 0.04101652939099896 0  0.5 0.04101652939099896 0  0.52 0.04101652939099896 0  0.54 0.04101652939099896 0  0.5600000000000001 0.04101652939099896 0  0.58 0.04101652939099896 0  0.6 0.04101652939099896 0  0.62 0.04101652939099896 0  0.64 0.04101652939099896 0  0.66 0.04101652939099896 0  0.68 0.04101652939099896 0  0.7 0.04101652939099896 0  0.72 0.04101652939099896 0  0.74 0.04101652939099896 0  0.76 0.04101652939099896 0  0.78 0.04101652939099896 0  0.8 0.04101652939099896 0  0.82 0.04101652939099896 0  0.84 0.04101652939099896 0  0.86 0.04101652939099896 0  0.88 0.04101652939099896 0  0.9 0.04101652939099896 0  0.92 0.04101652939099896 0  0.9399999999999999 0.04101652939099896 0  0.96 0.04101652939099896 0  0.98 0.04101652939099896 0  1 0.04101652939099896 0  0 0.05705811164099547 0  0.02 0.05705811164099547 0  0.04 0.05705811164099547 0  0.06 0.05705811164099547 0  0.08 0.05705811164099547 0  0.1 0.05705811164099547 0  0.12 0.05705811164099547 0  0.14 0.05705811164099547 0  0.16 0.05705811164099547 0  0.18 0.05705811164099547 0  0.2 0.05705811164099547 0  0.22 0.05705811164099547 0  0.24 0.05705811164099547 0  0.26 0.05705811164099547 0  0.28 0.05705811164099547 0  0.3 0.05705811164099547 0  0.32 0.05705811164099547 0  0.34 0.05705811164099547 0  0.36 0.05705811164099547 0  0.38 0.05705811164099547 0  0.4 0.05705811164099547 0  0.42 0.05705811164099547 0  0.44 0.05705811164099547 0  0.46 0.05705811164099547 0  0.48 0.05705811164099547 0  0.5 0.05705811164099547 0  0.52 0.05705811164099547 0  0.54 0.05705811164099547 0  0.5600000000000001 0.05705811164099547 0  0.58 0.05705811164099547 0  0.6 0.05705811164099547 0  0.62 0.05705811164099547 0  0.64 0.05705811164099547 0  0.66 0.05705811164099547 0  0.68 0.05705811164099547 0  0.7 0.05705811164099547 0  0.72 0.05705811164099547 0  0.74 0.05705811164099547 0  0.76 0.05705811164099547 0  0.78 0.05705811164099547 0  0.8 0.05705811164099547 0  0.82 0.05705811164099547 0  0.84 0.05705811164099547 0  0.86 0.05705811164099547 0  0.88 0.05705811164099547 0  0.9 0.05705811164099547 0  0.92 0.05705811164099547 0  0.9399999999999999 0.05705811164099547 0  0.96 0.05705811164099547 0  0.98 0.05705811164099547 0  1 0.05705811164099547 0  0 0.07667714377545 0  0.02 0.07667714377545 0  0.04 0.07667714377545 0  0.06 0.07667714377545 0  0.08 0.07667714377545 0  0.1 0.07667714377545 0  0.12 0.07667714377545 0  0.14 0.07667714377545 0  0.16 0.07667714377545 0  0.18 0.07667714377545 0  0.2 0.07667714377545 0  0.22 0.07667714377545 0  0.24 0.07667714377545 0  0.26 0.07667714377545 0  0.28 0.07667714377545 0  0.3 0.07667714377545 0  0.32 0.07667714377545 0  0.34 0.07667714377545 0  0.36 0.07667714377545 0  0.38 0.07667714377545 0  0.4 0.07667714377545 0  0.42 0.07667714377545 0  0.44 0.07667714377545 0  0.46 0.07667714377545 0  0.48 0.07667714377545 0  0.5 0.07667714377545 0  0.52 0.07667714377545 0  0.54 0.07667714377545 0  0.5600000000000001 0.07667714377545 0  0.58 0.07667714377545 0  0.6 0.07667714377545 0  0.62 0.07667714377545 0  0.64 0.07667714377545 0  0.66 0.07667714377545 0  0.68 0.07667714377545 0  0.7 0.07667714377545 0  0.72 0.07667714377545 0  0.74 0.07667714377545 0  0.76 0.07667714377545 0  0.78 0.07667714377545 0  0.8 0.07667714377545 0  0.82 0.07667714377545 0  0.84 0.07667714377545 0  0.86 0.07667714377545 0  0.88 0.07667714377545 0  0.9 0.07667714377545 0  0.92 0.07667714377545 0  0.9399999999999999 0.07667714377545 0  0.96 0.07667714377545 0  0.98 0.07667714377545 0  1 0.07667714377545 0  0 0.1098730133816912 0  0.02 0.1098730133816912 0  0.04 0.1098730133816912 0  0.06 0.1098730133816912 0  0.08 0.1098730133816912 0  0.1 0.1098730133816912 0  0.12 0.1098730133816912 0  0.14 0.1098730133816912 0  0.16 0.1098730133816912 0  0.18 0.1098730133816912 0  0.2 0.1098730133816912 0  0.22 0.1098730133816912 0  0.24 0.1098730133816912 0  0.26 0.1098730133816912 0  0.28 0.1098730133816912 0  0.3 0.1098730133816912 0  0.32 0.1098730133816912 0  0.34 0.1098730133816912 0  0.36 0.1098730133816912 0  0.38 0.1098730133816912 0  0.4 0.1098730133816912 0  0.42 0.1098730133816912 0  0.44 0.1098730133816912 0  0.46 0.1098730133816912 0  0.48 0.1098730133816912 0  0.5 0.1098730133816912 0  0.52 0.1098730133816912 0  0.54 0.1098730133816912 0  0.5600000000000001 0.1098730133816912 0  0.58 0.1098730133816912 0  0.6 0.1098730133816912 0  0.62 0.1098730133816912 0  0.64 0.1098730133816912 0  0.66 0.1098730133816912 0  0.68 0.1098730133816912 0  0.7 0.1098730133816912 0  0.72 0.1098730133816912 0  0.74 0.1098730133816912 0  0.76 0.1098730133816912 0  0.78 0.1098730133816912 0  0.8 0.1098730133816912 0  0.82 0.1098730133816912 0  0.84 0.1098730133816912 0  0.86 0.1098730133816912 0  0.88 0.1098730133816912 0  0.9 0.1098730133816912 0  0.92 0.1098730133816912 0  0.9399999999999999 0.1098730133816912 0  0.96 0.1098730133816912 0  0.98 0.1098730133816912 0  1 0.1098730133816912 0  0 0.1603283563168221 0  0.02 0.1603283563168221 0  0.04 0.1603283563168221 0  0.06 0.1603283563168221 0  0.08 0.1603283563168221 0  0.1 0.1603283563168221 0  0.12 0.1603283563168221 0  0.14 0.1603283563168221 0  0.16 0.1603283563168221 0  0.18 0.1603283563168221 0  0.2 0.1603283563168221 0  0.22 0.1603283563168221 0  0.24 0.1603283563168221 0  0.26 0.1603283563168221 0  0.28 0.1603283563168221 0  0.3 0.1603283563168221 0  0.32 0.1603283563168221 0  0.34 0.1603283563168221 0  0.36 0.1603283563168221 0  0.38 0.1603283563168221 0  0.4 0.1603283563168221 0  0.42 0.1603283563168221 0  0.44 0.1603283563168221 0  0.46 0.1603283563168221 0  0.48 0.1603283563168221 0  0.5 0.1603283563168221 0  0.52 0.1603283563168221 0  0.54 0.1603283563168221 0  0.5600000000000001 0.1603283563168221 0  0.58 0.1603283563168221 0 
[...]
<PointData  Vectors="u_paraw"> 
<DataArray  type="Float64"  Name="u_paraw"  NumberOfComponents="3" format="ascii">-1.1239305800682926e-05 2.8047556763258989e-04 0.0000000000000000e+00  -1.1239305802432752e-05 2.8047556763268746e-04 0.0000000000000000e+00  -1.1239305798933097e-05 2.8047556763483418e-04 0.0000000000000000e+00  -1.1239305807253032e-05 2.8047556763622191e-04 0.0000000000000000e+00  -1.1239305805007970e-05 2.8047556763876978e-04 0.0000000000000000e+00  -1.1239305806064467e-05 2.8047556761790990e-04 0.0000000000000000e+00  -1.1239305799048651e-05 2.8047556763284982e-04 0.0000000000000000e+00  -1.1239305807781279e-05 2.8047556763415124e-04 0.0000000000000000e+00  -1.1239305804298132e-05 2.8047556762176966e-04 0.0000000000000000e+00  -1.1239305806345101e-05 2.8047556762637714e-04 0.0000000000000000e+00  -1.1239305803489250e-05 2.8047556762599804e-04 0.0000000000000000e+00  -1.1239305805701297e-05 2.8047556762313575e-04 0.0000000000000000e+00  -1.1239305803786391e-05 2.8047556763526759e-04 0.0000000000000000e+00  -1.1239305805717804e-05 2.8047556762864312e-04 0.0000000000000000e+00  -1.1239305805833359e-05 2.8047556762685505e-04 0.0000000000000000e+00  -1.1239305803670837e-05 2.8047556762451231e-04 0.0000000000000000e+00  -1.1239305807979373e-05 2.8047556761969845e-04 0.0000000000000000e+00  -1.1239305802828938e-05 2.8047556763706824e-04 0.0000000000000000e+00  -1.1239305809118412e-05 2.8047556761897203e-04 0.0000000000000000e+00  -1.1239305797579457e-05 2.8047556763072479e-04 0.0000000000000000e+00  -1.1239305807269537e-05 2.8047556762577085e-04 0.0000000000000000e+00  -1.1239305806741287e-05 2.8047556761954666e-04 0.0000000000000000e+00  -1.1239305799824518e-05 2.8047556762913101e-04 0.0000000000000000e+00  -1.1239305800286737e-05 2.8047556763139786e-04 0.0000000000000000e+00  -1.1239305801227680e-05 2.8047556763438939e-04 0.0000000000000000e+00  -1.1239305806774303e-05 2.8047556762587840e-04 0.0000000000000000e+00  -1.1239305805734312e-05 2.8047556762175843e-04 0.0000000000000000e+00  -1.1239305802168625e-05 2.8047556763279561e-04 0.0000000000000000e+00  -1.1239305805486694e-05 2.8047556762962042e-04 0.0000000000000000e+00  -1.1239305807583185e-05 2.8047556763094163e-04 0.0000000000000000e+00  -1.1239305802828938e-05 2.8047556762056581e-04 0.0000000000000000e+00  -1.1239305803670837e-05 2.8047556763509412e-04 0.0000000000000000e+00  -1.1239305806559702e-05 2.8047556762805765e-04 0.0000000000000000e+00  -1.1239305793716629e-05 2.8047556762915269e-04 0.0000000000000000e+00  -1.1239305812832669e-05 2.8047556761817124e-04 0.0000000000000000e+00  -1.1239305807995882e-05 2.8047556762625787e-04 0.0000000000000000e+00  -1.1239305804067023e-05 2.8047556762782997e-04 0.0000000000000000e+00  -1.1239305804265117e-05 2.8047556763412918e-04 0.0000000000000000e+00  -1.1239305808078420e-05 2.8047556761342092e-04 0.0000000000000000e+00  -1.1239305800286737e-05 2.8047556763095247e-04 0.0000000000000000e+00  -1.1239305810092373e-05 2.8047556763126841e-04 0.0000000000000000e+00  -1.1239305802284181e-05 2.8047556762500020e-04 0.0000000000000000e+00  -1.1239305807764772e-05 2.8047556762360158e-04 0.0000000000000000e+00  -1.1239305798091199e-05 2.8047556762967311e-04 0.0000000000000000e+00  -1.1239305806510179e-05 2.8047556762289685e-04 0.0000000000000000e+00  -1.1239305799626424e-05 2.8047556762893585e-04 0.0000000000000000e+00  -1.1239305804628289e-05 2.8047556763190808e-04 0.0000000000000000e+00  -1.1239305805305109e-05 2.8047556762596514e-04 0.0000000000000000e+00  -1.1239305794211864e-05 2.8047556764401711e-04 0.0000000000000000e+00  -1.1239305811809183e-05 2.8047556762403526e-04 0.0000000000000000e+00  -1.1239305800682923e-05 -3.2176538784398838e-15 0.0000000000000000e+00  5.1807777327070354e-05 1.7864098204125632e-04 0.0000000000000000e+00  5.1807777323924663e-05 1.7864098203956497e-04 0.0000000000000000e+00  5.1807777323475275e-05 1.7864098204511614e-04 0.0000000000000000e+00  5.1807777319559218e-05 1.7864098204468240e-04 0.0000000000000000e+00  5.1807777321067872e-05 1.7864098203884939e-04 0.0000000000000000e+00  5.1807777313235738e-05 1.7864098203414409e-04 0.0000000000000000e+00  5.1807777329413586e-05 1.7864098203921789e-04 0.0000000000000000e+00  5.1807777321067872e-05 1.7864098204554990e-04 0.0000000000000000e+00  5.1807777314327102e-05 1.7864098203145527e-04 0.0000000000000000e+00  5.1807777317793785e-05 1.7864098202818071e-04 0.0000000000000000e+00  5.1807777323057999e-05 1.7864098203765691e-04 0.0000000000000000e+00  5.1807777326364193e-05 1.7864098204290444e-04 0.0000000000000000e+00  5.1807777328707411e-05 1.7864098203796021e-04 0.0000000000000000e+00  5.1807777324855539e-05 1.7864098204162482e-04 0.0000000000000000e+00  5.1807777312786349e-05 1.7864098202774752e-04 0.0000000000000000e+00  5.1807777323186396e-05 1.7864098203900105e-04 0.0000000000000000e+00  5.1807777321196268e-05 1.7864098204249218e-04 0.0000000000000000e+00  5.1807777325497522e-05 1.7864098203594408e-04 0.0000000000000000e+00  5.1807777316574023e-05 1.7864098203191036e-04 0.0000000000000000e+00  5.1807777323411090e-05 1.7864098203455582e-04 0.0000000000000000e+00  5.1807777323667884e-05 1.7864098204641748e-04 0.0000000000000000e+00  5.1807777315771551e-05 1.7864098203561834e-04 0.0000000000000000e+00  5.1807777329670379e-05 1.7864098203906610e-04 0.0000000000000000e+00  5.1807777327904939e-05 1.7864098204275287e-04 0.0000000000000000e+00  5.1807777327166665e-05 1.7864098203800358e-04 0.0000000000000000e+00  5.1807777322704915e-05 1.7864098205196810e-04 0.0000000000000000e+00  5.1807777318114769e-05 1.7864098203440403e-04 0.0000000000000000e+00  5.1807777325401225e-05 1.7864098203494613e-04 0.0000000000000000e+00  5.1807777322416023e-05 1.7864098203351599e-04 0.0000000000000000e+00  5.1807777318788845e-05 1.7864098203746148e-04 0.0000000000000000e+00  5.1807777323218495e-05 1.7864098204192839e-04 0.0000000000000000e+00  5.1807777322704915e-05 1.7864098203655075e-04 0.0000000000000000e+00  5.1807777320682682e-05 1.7864098203861073e-04 0.0000000000000000e+00  5.1807777322801213e-05 1.7864098203286446e-04 0.0000000000000000e+00  5.1807777323411090e-05 1.7864098204752388e-04 0.0000000000000000e+00  5.1807777328803709e-05 1.7864098204212355e-04 0.0000000000000000e+00  5.1807777325337026e-05 1.7864098204607004e-04 0.0000000000000000e+00  5.1807777318820944e-05 1.7864098203713622e-04 0.0000000000000000e+00  5.1807777316060443e-05 1.7864098203743980e-04 0.0000000000000000e+00  5.1807777326075300e-05 1.7864098203034911e-04 0.0000000000000000e+00  5.1807777328707411e-05 1.7864098204461822e-04 0.0000000000000000e+00  5.1807777326332094e-05 1.7864098204715425e-04 0.0000000000000000e+00  5.1807777318756746e-05 1.7864098204342459e-04 0.0000000000000000e+00  5.1807777322672816e-05 1.7864098203531476e-04 0.0000000000000000e+00  5.1807777320971574e-05 1.7864098203767832e-04 0.0000000000000000e+00  5.1807777328033335e-05 1.7864098204522437e-04 0.0000000000000000e+00  5.1807777320778979e-05 1.7864098203368946e-04 0.0000000000000000e+00  5.1807777330633347e-05 1.7864098205183800e-04 0.0000000000000000e+00  5.1807777323828373e-05 1.7864098204379322e-04 0.0000000000000000e+00  5.1807777313043143e-05 1.7864098204409680e-04 0.0000000000000000e+00  5.1807777327070367e-05 6.0954757543219375e-04 0.0000000000000000e+00  2.8033769857789865e-06 -2.9549558944498566e-04 0.0000000000000000e+00  2.8033769933841769e-06 -2.9549558944593976e-04 0.0000000000000000e+00  2.8033769912112650e-06 -2.9549558944541940e-04 0.0000000000000000e+00  2.8033769841493028e-06 -2.9549558944316409e-04 0.0000000000000000e+00  2.8033769769666230e-06 -2.9549558945274844e-04 0.0000000000000000e+00  2.8033769854771929e-06 -2.9549558944585319e-04 0.0000000000000000e+00  2.8033769933841769e-06 -2.9549558945231460e-04 0.0000000000000000e+00  2.8033769906680374e-06 -2.9549558943921787e-04 0.0000000000000000e+00  2.8033769769062643e-06 -2.9549558945799625e-04 0.0000000000000000e+00  2.8033769796224038e-06 -2.9549558945110029e-04 0.0000000000000000e+00  2.8033769954363708e-06 -2.9549558944381489e-04 0.0000000000000000e+00  2.8033769819160326e-06 -2.9549558945439670e-04 0.0000000000000000e+00  2.8033769930823833e-06 -2.9549558945196765e-04 0.0000000000000000e+00  2.8033769898833749e-06 -2.9549558945097019e-04 0.0000000000000000e+00  2.8033769854771929e-06 -2.9549558944771839e-04 0.0000000000000000e+00  2.8033769894608643e-06 -2.9549558945721519e-04 0.0000000000000000e+00  2.8033769963417508e-06 -2.9549558944368435e-04 0.0000000000000000e+00  2.8033769880122567e-06 -2.9549558944333822e-04 0.0000000000000000e+00  2.8033769801656318e-06 -2.9549558944780432e-04 0.0000000000000000e+00  2.8033769895815817e-06 -2.9549558945040640e-04 0.0000000000000000e+00  2.8033769915130582e-06 -2.9549558944537652e-04 0.0000000000000000e+00  2.8033769830628471e-06 -2.9549558944420477e-04 0.0000000000000000e+00  2.8033769907283961e-06 -2.9549558945253144e-04 0.0000000000000000e+00  2.8033769903058855e-06 -2.9549558945474402e-04 0.0000000000000000e+00  2.8033769860807797e-06 -2.9549558946172547e-04 0.0000000000000000e+00  2.8033769857186278e-06 -2.9549558945452637e-04 0.0000000000000000e+00  2.8033769847528891e-06 -2.9549558944394456e-04 0.0000000000000000e+00  2.8033769839078683e-06 -2.9549558945378911e-04 0.0000000000000000e+00  2.8033769807692182e-06 -2.9549558945808423e-04 0.0000000000000000e+00  2.8033769807088595e-06 -2.9549558946484798e-04 0.0000000000000000e+00  2.8033769954363708e-06 -2.9549558944628643e-04 0.0000000000000000e+00  2.8033769811313701e-06 -2.9549558945864634e-04 0.0000000000000000e+00  2.8033769982128690e-06 -2.9549558944325067e-04 0.0000000000000000e+00  2.8033769777512856e-06 -2.9549558945378911e-04 0.0000000000000000e+00  2.8033769837267921e-06 -2.9549558944776263e-04 0.0000000000000000e+00  2.8033769842700202e-06 -2.9549558945591415e-04 0.0000000000000000e+00  2.8033769900040919e-06 -2.9549558945352890e-04 0.0000000000000000e+00  2.8033769854168346e-06 -2.9549558944884515e-04 0.0000000000000000e+00  2.8033769881933324e-06 -2.9549558945196765e-04 0.0000000000000000e+00  2.8033769868050835e-06 -2.9549558945084008e-04 0.0000000000000000e+00  2.8033769886762017e-06 -2.9549558945079840e-04 0.0000000000000000e+00  2.8033769885554843e-06 -2.9549558945747540e-04 0.0000000000000000e+00  2.8033769828817709e-06 -2.9549558944871505e-04 0.0000000000000000e+00  2.8033769840285853e-06 -2.9549558944394456e-04 0.0000000000000000e+00  2.8033769857789865e-06 -2.9549558945292175e-04 0.0000000000000000e+00  2.8033769944102739e-06 -2.9549558944416140e-04 0.0000000000000000e+00  2.8033769891590711e-06 -2.9549558944216815e-04 0.0000000000000000e+00  2.8033769916941344e-06 -2.9549558944108226e-04 0.0000000000000000e+00  2.8033769872275941e-06 -2.9549558945543710e-04 0.0000000000000000e+00  2.8033769909698306e-06 -2.9549558944732727e-04 0.0000000000000000e+00  2.8033769857789865e-06 -4.4814626253148750e-04 0.0000000000000000e+00  -2.1267700381115829e-04 -1.6678320448725720e-04 0.0000000000000000e+00  -2.1267700380964434e-04 -1.6678320448422143e-04 0.0000000000000000e+00  -2.1267700381613270e-04 -1.6678320450703307e-04 0.0000000000000000e+00  -2.1267700380748155e-04 -1.6678320449003273e-04 0.0000000000000000e+00  -2.1267700380921177e-04 -1.6678320448257342e-04 0.0000000000000000e+00  -2.1267700380748152e-04 -1.6678320448257355e-04 0.0000000000000000e+00  -2.1267700380986061e-04 -1.6678320448283352e-04 0.0000000000000000e+00  -2.1267700381364545e-04 -1.6678320448370112e-04 0.0000000000000000e+00  -2.1267700380877920e-04 -1.6678320448083883e-04 0.0000000000000000e+00  -2.1267700381515943e-04 -1.6678320449116019e-04 0.0000000000000000e+00  -2.1267700381472687e-04 -1.6678320449931363e-04 0.0000000000000000e+00  -2.1267700381418615e-04 -1.6678320449783912e-04 0.0000000000000000e+00  -2.1267700381894430e-04 -1.6678320449818582e-04 0.0000000000000000e+00  -2.1267700380434552e-04 -1.6678320448335393e-04 0.0000000000000000e+00  -2.1267700380877920e-04 -1.6678320448639016e-04 0.0000000000000000e+00  -2.1267700381721408e-04 -1.6678320450191548e-04 0.0000000000000000e+00  -2.1267700381115829e-04 -1.6678320449887971e-04 0.0000000000000000e+00  -2.1267700380585945e-04 -1.6678320448656363e-04 0.0000000000000000e+00  -2.1267700381861988e-04 -1.6678320450096138e-04 0.0000000000000000e+00  -2.1267700381386175e-04 -1.6678320449168061e-04 0.0000000000000000e+00  -2.1267700381159081e-04 -1.6678320449983427e-04 0.0000000000000000e+00  -2.1267700381959314e-04 -1.6678320449957360e-04 0.0000000000000000e+00  -2.1267700381613270e-04 -1.6678320449315512e-04 0.0000000000000000e+00  -2.1267700380391292e-04 -1.6678320448682384e-04 0.0000000000000000e+00  -2.1267700381537571e-04 -1.6678320450217568e-04 0.0000000000000000e+00  -2.1267700381364548e-04 -1.6678320448933873e-04 0.0000000000000000e+00  -2.1267700380921177e-04 -1.6678320448196616e-04 0.0000000000000000e+00  -2.1267700381386175e-04 -1.6678320449142040e-04 0.0000000000000000e+00  -2.1267700381678154e-04 -1.6678320449697243e-04 0.0000000000000000e+00  -2.1267700381645712e-04 -1.6678320449671130e-04 0.0000000000000000e+00  -2.1267700381386175e-04 -1.6678320450408388e-04 0.0000000000000000e+00  -2.1267700381105015e-04 -1.6678320448968567e-04 0.0000000000000000e+00  -2.1267700381018503e-04 -1.6678320450122159e-04 0.0000000000000000e+00  -2.1267700381732223e-04 -1.6678320449567047e-04 0.0000000000000000e+00  -2.1267700380553505e-04 -1.6678320449220195e-04 0.0000000000000000e+00  -2.1267700381570013e-04 -1.6678320449506332e-04 0.0000000000000000e+00  -2.1267700381472689e-04 -1.6678320449254797e-04 0.0000000000000000e+00  -2.1267700381461874e-04 -1.6678320450217568e-04 0.0000000000000000e+00  -2.1267700381580828e-04 -1.6678320449462964e-04 0.0000000000000000e+00  -2.1267700381202341e-04 -1.6678320449835929e-04 0.0000000000000000e+00  -2.1267700379937112e-04 -1.6678320447919152e-04 0.0000000000000000e+00  -2.1267700381667339e-04 -1.6678320449593068e-04 0.0000000000000000e+00  -2.1267700380456179e-04 -1.6678320449098672e-04 0.0000000000000000e+00  -2.1267700381007688e-04 -1.6678320448656317e-04 0.0000000000000000e+00  -2.1267700381634897e-04 -1.6678320448890505e-04 0.0000000000000000e+00  -2.1267700381548386e-04 -1.6678320451102277e-04 0.0000000000000000e+00  -2.1267700380207461e-04 -1.6678320448951312e-04 0.0000000000000000e+00  -2.1267700380369668e-04 -1.6678320447953754e-04 0.0000000000000000e+00  -2.1267700381342921e-04 -1.6678320448985915e-04 0.0000000000000000e+00  -2.1267700380834666e-04 -1.6678320448378761e-04 0.0000000000000000e+00  -2.1267700381115829e-04 -1.3535523853181554e-04 0.0000000000000000e+00  3.9254139040610235e-04 1.2123613960983782e-03 0.0000000000000000e+00  3.9254139040132763e-04 1.2123613960787758e-03 0.0000000000000000e+00  3.9254139039611089e-04 1.2123613960973378e-03 0.0000000000000000e+00  3.9254139040627919e-04 1.2123613960892707e-03 0.0000000000000000e+00  3.9254139040221185e-04 1.2123613961002862e-03 0.0000000000000000e+00  3.9254139040106238e-04 1.2123613961090474e-03 0.0000000000000000e+00  3.9254139039301614e-04 1.2123613960904843e-03 0.0000000000000000e+00  3.9254139039522661e-04 1.2123613960953431e-03 0.0000000000000000e+00  3.9254139039195509e-04 1.2123613960952563e-03 0.0000000000000000e+00  3.9254139038647303e-04 1.2123613960854536e-03 0.0000000000000000e+00  3.9254139039726030e-04 1.2123613961139913e-03 0.0000000000000000e+00  3.9254139039867502e-04 1.2123613961076596e-03 0.0000000000000000e+00  3.9254139038771092e-04 1.2123613960821576e-03 0.0000000000000000e+00  3.9254139039434244e-04 1.2123613960877955e-03 0.0000000000000000e+00  3.9254139040221185e-04 1.2123613961018500e-03 0.0000000000000000e+00  3.9254139039876344e-04 1.2123613960885761e-03 0.0000000000000000e+00  3.9254139039964766e-04 1.2123613960930864e-03 0.0000000000000000e+00  3.9254139039911711e-04 1.2123613960885794e-03 0.0000000000000000e+00  3.9254139039239717e-04 1.2123613960959487e-03 0.0000000000000000e+00  3.9254139039832136e-04 1.2123613960950813e-03 0.0000000000000000e+00  3.9254139039602242e-04 1.2123613960986408e-03 0.0000000000000000e+00  3.9254139039478453e-04 1.2123613960903976e-03 0.0000000000000000e+00  3.9254139040062030e-04 1.2123613960915252e-03 0.0000000000000000e+00  3.9254139039823294e-04 1.2123613960974265e-03 0.0000000000000000e+00  3.9254139039717189e-04 1.2123613960942140e-03 0.0000000000000000e+00  3.9254139039840977e-04 1.2123613960988110e-03 0.0000000000000000e+00  3.9254139039602242e-04 1.2123613960890965e-03 0.0000000000000000e+00  3.9254139040910863e-04 1.2123613961039284e-03 0.0000000000000000e+00  3.9254139040291919e-04 1.2123613961072311e-03 0.0000000000000000e+00  3.9254139038806459e-04 1.2123613960858873e-03 0.0000000000000000e+00  3.9254139040194660e-04 1.2123613960929129e-03 0.0000000000000000e+00  3.9254139040035500e-04 1.2123613960958620e-03 0.0000000000000000e+00  3.9254139039876344e-04 1.2123613960938670e-03 0.0000000000000000e+00  3.9254139040442238e-04 1.2123613961013263e-03 0.0000000000000000e+00  3.9254139039814452e-04 1.2123613960909247e-03 0.0000000000000000e+00  3.9254139039690664e-04 1.2123613960918721e-03 0.0000000000000000e+00  3.9254139039832136e-04 1.2123613960916986e-03 0.0000000000000000e+00  3.9254139040415708e-04 1.2123613960976834e-03 0.0000000000000000e+00  3.9254139039593400e-04 1.2123613960937803e-03 0.0000000000000000e+00  3.9254139040123922e-04 1.2123613960969028e-03 0.0000000000000000e+00  3.9254139040309608e-04 1.2123613960924860e-03 0.0000000000000000e+00  3.9254139040247711e-04 1.2123613960938670e-03 0.0000000000000000e+00  3.9254139040530655e-04 1.2123613960959487e-03 0.0000000000000000e+00  3.9254139039734872e-04 1.2123613960919588e-03 0.0000000000000000e+00  3.9254139039867502e-04 1.2123613960975967e-03 0.0000000000000000e+00  3.9254139039840977e-04 1.2123613961017600e-03 0.0000000000000000e+00  3.9254139040398024e-04 1.2123613961038484e-03 0.0000000000000000e+00  3.9254139040451080e-04 1.2123613960913517e-03 0.0000000000000000e+00  3.9254139039982450e-04 1.2123613960988977e-03 0.0000000000000000e+00  3.9254139040344974e-04 1.2123613960910915e-03 0.0000000000000000e+00  3.9254139040610235e-04 8.3022929765192430e-04 0.0000000000000000e+00  1.1745934223504250e-04 5.9735669384278905e-04 0.0000000000000000e+00  1.1745934222480008e-04 5.9735669383203377e-04 0.0000000000000000e+00  1.1745934222448654e-04 5.9735669383411555e-04 0.0000000000000000e+00  1.1745934221873825e-04 5.9735669381277823e-04 0.0000000000000000e+00  1.1745934221476670e-04 5.9735669381590073e-04 0.0000000000000000e+00  1.1745934221528927e-04 5.9735669381607464e-04 0.0000000000000000e+00  1.1745934222260526e-04 5.9735669380930835e-04 0.0000000000000000e+00  1.1745934222197820e-04 5.9735669379699268e-04 0.0000000000000000e+00  1.1745934222699489e-04 5.9735669382995243e-04 0.0000000000000000e+00  1.1745934223054836e-04 5.9735669381902280e-04 0.0000000000000000e+00  1.1745934223661021e-04 5.9735669381919714e-04 0.0000000000000000e+00  1.1745934223253416e-04 5.9735669380705408e-04 0.0000000000000000e+00  1.1745934222114206e-04 5.9735669381104307e-04 0.0000000000000000e+00  1.1745934222500910e-04 5.9735669381728808e-04 0.0000000000000000e+00  1.1745934222020144e-04 5.9735669382943277e-04 0.0000000000000000e+00  1.1745934221298993e-04 5.9735669379629792e-04 0.0000000000000000e+00  1.1745934223201157e-04 5.9735669383064545e-04 0.0000000000000000e+00  1.1745934221988789e-04 5.9735669380896303e-04 0.0000000000000000e+00  1.1745934222438201e-04 5.9735669383602309e-04 0.0000000000000000e+00  1.1745934222312784e-04 5.9735669381624724e-04 0.0000000000000000e+00  1.1745934221685697e-04 5.9735669382041221e-04 0.0000000000000000e+00  1.1745934221664795e-04 5.9735669381260432e-04 0.0000000000000000e+00  1.1745934222365041e-04 5.9735669382214530e-04 0.0000000000000000e+00  1.1745934221685697e-04 5.9735669380254455e-04 0.0000000000000000e+00  1.1745934221926081e-04 5.9735669380046126e-04 0.0000000000000000e+00  1.1745934222061949e-04 5.9735669381347169e-04 0.0000000000000000e+00  1.174593422