<?xml version="1.0"?>
<VTKFile type="UnstructuredGrid"  version="0.1"  >
<UnstructuredGrid>
<Piece  NumberOfPoints="2601" NumberOfCells="5000">
<Points>
<DataArray  type="Float64"  NumberOfComponents="3"  format="ascii">0 0 0  0.02 0 0  0.04 0 0  0.06 0 0  0.08 0 0  0.1 0 0  0.12 0 0  0.14 0 0  0.16 0 0  0.18 0 0  0.2 0 0  0.22 0 0  0.24 0 0  0.26 0 0  0.28 0 0  0.3 0 0  0.32 0 0  0.34 0 0  0.36 0 0  0.38 0 0  0.4 0 0  0.42 0 0  0.44 0 0  0.46 0 0  0.48 0 0  0.5 0 0  0.52 0 0  0.54 0 0  0.5600000000000001 0 0  0.58 0 0  0.6 0 0  0.62 0 0  0.64 0 0  0.66 0 0  0.68 0 0  0.7 0 0  0.72 0 0  0.74 0 0  0.76 0 0  0.78 0 0  0.8 0 0  0.82 0 0  0.84 0 0  0.86 0 0  0.88 0 0  0.9 0 0  0.92 0 0  0.9399999999999999 0 0  0.96 0 0  0.98 0 0  1 0 0  0 0.01313563088723984 0  0.02 0.01313563088723984 0  0.04 0.01313563088723984 0  0.06 0.01313563088723984 0  0.08 0.01313563088723984 0  0.1 0.01313563088723984 0  0.12 0.01313563088723984 0  0.14 0.01313563088723984 0  0.16 0.01313563088723984 0  0.18 0.01313563088723984 0  0.2 0.01313563088723984 0  0.22 0.01313563088723984 0  0.24 0.01313563088723984 0  0.26 0.01313563088723984 0  0.28 0.01313563088723984 0  0.3 0.01313563088723984 0  0.32 0.01313563088723984 0  0.34 0.01313563088723984 0  0.36 0.01313563088723984 0  0.38 0.01313563088723984 0  0.4 0.01313563088723984 0  0.42 0.01313563088723984 0  0.44 0.01313563088723984 0  0.46 0.01313563088723984 0  0.48 0.01313563088723984 0  0.5 0.01313563088723984 0  0.52 0.01313563088723984 0  0.54 0.01313563088723984 0  0.5600000000000001 0.01313563088723984 0  0.58 0.01313563088723984 0  0.6 0.01313563088723984 0  0.62 0.01313563088723984 0  0.64 0.01313563088723984 0  0.66 0.01313563088723984 0  0.68 0.01313563088723984 0  0.7 0.01313563088723984 0  0.72 0.01313563088723984 0  0.74 0.01313563088723984 0  0.76 0.01313563088723984 0  0.78 0.01313563088723984 0  0.8 0.01313563088723984 0  0.82 0.01313563088723984 0  0.84 0.01313563088723984 0  0.86 0.01313563088723984 0  0.88 0.01313563088723984 0  0.9 0.01313563088723984 0  0.92 0.01313563088723984 0  0.9399999999999999 0.01313563088723984 0  0.96 0.01313563088723984 0  0.98 0.01313563088723984 0  1 0.01313563088723984 0  0 0.02664639863733726 0  0.02 0.02664639863733726 0  0.04 0.02664639863733726 0  0.06 0.02664639863733726 0  0.08 0.02664639863733726 0  0.1 0.02664639863733726 0  0.12 0.02664639863733726 0  0.14 0.02664639863733726 0  0.16 0.02664639863733726 0  0.18 0.02664639863733726 0  0.2 0.02664639863733726 0  0.22 0.02664639863733726 0  0.24 0.02664639863733726 0  0.26 0.02664639863733726 0  0.28 0.02664639863733726 0  0.3 0.02664639863733726 0  0.32 0.02664639863733726 0  0.34 0.02664639863733726 0  0.36 0.02664639863733726 0  0.38 0.02664639863733726 0  0.4 0.02664639863733726 0  0.42 0.02664639863733726 0  0.44 0.02664639863733726 0  0.46 0.02664639863733726 0  0.48 0.02664639863733726 0  0.5 0.02664639863733726 0  0.52 0.02664639863733726 0  0.54 0.02664639863733726 0  0.5600000000000001 0.02664639863733726 0  0.58 0.02664639863733726 0  0.6 0.02664639863733726 0  0.62 0.02664639863733726 0  0.64 0.02664639863733726 0  0.66 0.02664639863733726 0  0.68 0.02664639863733726 0  0.7 0.02664639863733726 0  0.72 0.02664639863733726 0  0.74 0.02664639863733726 0  0.76 0.02664639863733726 0  0.78 0.02664639863733726 0  0.8 0.02664639863733726 0  0.82 0.02664639863733726 0  0.84 0.02664639863733726 0  0.86 0.02664639863733726 0  0.88 0.02664639863733726 0  0.9 0.02664639863733726 0  0.92 0.02664639863733726 0  0.9399999999999999 0.02664639863733726 0  0.96 0.02664639863733726 0  0.98 0.02664639863733726 0  1 0.02664639863733726 0  0 0.04101652939099896 0  0.02 0.04101652939099896 0  0.04 0.04101652939099896 0  0.06 0.04101652939099896 0  0.08 0.04101652939099896 0  0.1 0.04101652939099896 0  0.12 0.04101652939099896 0  0.14 0.04101652939099896 0  0.16 0.04101652939099896 0  0.18 0.04101652939099896 0  0.2 0.04101652939099896 0  0.22 0.04101652939099896 0  0.24 0.04101652939099896 0  0.26 0.04101652939099896 0  0.28 0.04101652939099896 0  0.3 0.04101652939099896 0  0.32 0.04101652939099896 0  0.34 0.04101652939099896 0  0.36 0.04101652939099896 0  0.38 0.04101652939099896 0  0.4 0.04101652939099896 0  0.42 0.04101652939099896 0  0.44 0.04101652939099896 0  0.46 0.04101652939099896 0  0.48 0.04101652939099896 0  0.5 0.04101652939099896 0  0.52 0.04101652939099896 0  0.54 0.04101652939099896 0  0.5600000000000001 0.04101652939099896 0  0.58 0.04101652939099896 0  0.6 0.04101652939099896 0  0.62 0.04101652939099896 0  0.64 0.04101652939099896 0  0.66 0.04101652939099896 0  0.68 0.04101652939099896 0  0.7 0.04101652939099896 0  0.72 0.04101652939099896 0  0.74 0.04101652939099896 0  0.76 0.04101652939099896 0  0.78 0.04101652939099896 0  0.8 0.04101652939099896 0  0.82 0.04101652939099896 0  0.84 0.04101652939099896 0  0.86 0.04101652939099896 0  0.88 0.04101652939099896 0  0.9 0.04101652939099896 0  0.92 0.04101652939099896 0  0.9399999999999999 0.04101652939099896 0  0.96 0.04101652939099896 0  0.98 0.04101652939099896 0  1 0.04101652939099896 0  0 0.05705811164099547 0  0.02 0.05705811164099547 0  0.04 0.05705811164099547 0  0.06 0.05705811164099547 0  0.08 0.05705811164099547 0  0.1 0.05705811164099547 0  0.12 0.05705811164099547 0  0.14 0.05705811164099547 0  0.16 0.05705811164099547 0  0.18 0.05705811164099547 0  0.2 0.05705811164099547 0  0.22 0.05705811164099547 0  0.24 0.05705811164099547 0  0.26 0.05705811164099547 0  0.28 0.05705811164099547 0  0.3 0.05705811164099547 0  0.32 0.05705811164099547 0  0.34 0.05705811164099547 0  0.36 0.05705811164099547 0  0.38 0.05705811164099547 0  0.4 0.05705811164099547 0  0.42 0.05705811164099547 0  0.44 0.05705811164099547 0  0.46 0.05705811164099547 0  0.48 0.05705811164099547 0  0.5 0.05705811164099547 0  0.52 0.05705811164099547 0  0.54 0.05705811164099547 0  0.5600000000000001 0.05705811164099547 0  0.58 0.05705811164099547 0  0.6 0.05705811164099547 0  0.62 0.05705811164099547 0  0.64 0.05705811164099547 0  0.66 0.05705811164099547 0  0.68 0.05705811164099547 0  0.7 0.05705811164099547 0  0.72 0.05705811164099547 0  0.74 0.05705811164099547 0  0.76 0.05705811164099547 0  0.78 0.05705811164099547 0  0.8 0.05705811164099547 0  0.82 0.05705811164099547 0  0.84 0.05705811164099547 0  0.86 0.05705811164099547 0  0.88 0.05705811164099547 0  0.9 0.05705811164099547 0  0.92 0.05705811164099547 0  0.9399999999999999 0.05705811164099547 0  0.96 0.05705811164099547 0  0.98 0.05705811164099547 0  1 0.05705811164099547 0  0 0.07667714377545 0  0.02 0.07667714377545 0  0.04 0.07667714377545 0  0.06 0.07667714377545 0  0.08 0.07667714377545 0  0.1 0.07667714377545 0  0.12 0.07667714377545 0  0.14 0.07667714377545 0  0.16 0.07667714377545 0  0.18 0.07667714377545 0  0.2 0.07667714377545 0  0.22 0.07667714377545 0  0.24 0.07667714377545 0  0.26 0.07667714377545 0  0.28 0.07667714377545 0  0.3 0.07667714377545 0  0.32 0.07667714377545 0  0.34 0.07667714377545 0  0.36 0.07667714377545 0  0.38 0.07667714377545 0  0.4 0.07667714377545 0  0.42 0.07667714377545 0  0.44 0.07667714377545 0  0.46 0.07667714377545 0  0.48 0.07667714377545 0  0.5 0.07667714377545 0  0.52 0.07667714377545 0  0.54 0.07667714377545 0  0.5600000000000001 0.07667714377545 0  0.58 0.07667714377545 0  0.6 0.07667714377545 0  0.62 0.07667714377545 0  0.64 0.07667714377545 0  0.66 0.07667714377545 0  0.68 0.07667714377545 0  0.7 0.07667714377545 0  0.72 0.07667714377545 0  0.74 0.07667714377545 0  0.76 0.07667714377545 0  0.78 0.07667714377545 0  0.8 0.07667714377545 0  0.82 0.07667714377545 0  0.84 0.07667714377545 0  0.86 0.07667714377545 0  0.88 0.07667714377545 0  0.9 0.07667714377545 0  0.92 0.07667714377545 0  0.9399999999999999 0.07667714377545 0  0.96 0.07667714377545 0  0.98 0.07667714377545 0  1 0.07667714377545 0  0 0.1098730133816912 0  0.02 0.1098730133816912 0  0.04 0.1098730133816912 0  0.06 0.1098730133816912 0  0.08 0.1098730133816912 0  0.1 0.1098730133816912 0  0.12 0.1098730133816912 0  0.14 0.1098730133816912 0  0.16 0.1098730133816912 0  0.18 0.1098730133816912 0  0.2 0.1098730133816912 0  0.22 0.1098730133816912 0  0.24 0.1098730133816912 0  0.26 0.1098730133816912 0  0.28 0.1098730133816912 0  0.3 0.1098730133816912 0  0.32 0.1098730133816912 0  0.34 0.1098730133816912 0  0.36 0.1098730133816912 0  0.38 0.1098730133816912 0  0.4 0.1098730133816912 0  0.42 0.1098730133816912 0  0.44 0.1098730133816912 0  0.46 0.1098730133816912 0  0.48 0.1098730133816912 0  0.5 0.1098730133816912 0  0.52 0.1098730133816912 0  0.54 0.1098730133816912 0  0.5600000000000001 0.1098730133816912 0  0.58 0.1098730133816912 0  0.6 0.1098730133816912 0  0.62 0.1098730133816912 0  0.64 0.1098730133816912 0  0.66 0.1098730133816912 0  0.68 0.1098730133816912 0  0.7 0.1098730133816912 0  0.72 0.1098730133816912 0  0.74 0.1098730133816912 0  0.76 0.1098730133816912 0  0.78 0.1098730133816912 0  0.8 0.1098730133816912 0  0.82 0.1098730133816912 0  0.84 0.1098730133816912 0  0.86 0.1098730133816912 0  0.88 0.1098730133816912 0  0.9 0.1098730133816912 0  0.92 0.1098730133816912 0  0.9399999999999999 0.1098730133816912 0  0.96 0.1098730133816912 0  0.98 0.1098730133816912 0  1 0.1098730133816912 0  0 0.1603283563168221 0  0.02 0.1603283563168221 0  0.04 0.1603283563168221 0  0.06 0.1603283563168221 0  0.08 0.1603283563168221 0  0.1 0.1603283563168221 0  0.12 0.1603283563168221 0  0.14 0.1603283563168221 0  0.16 0.1603283563168221 0  0.18 0.1603283563168221 0  0.2 0.1603283563168221 0  0.22 0.1603283563168221 0  0.24 0.1603283563168221 0  0.26 0.1603283563168221 0  0.28 0.1603283563168221 0  0.3 0.1603283563168221 0  0.32 0.1603283563168221 0  0.34 0.1603283563168221 0  0.36 0.1603283563168221 0  0.38 0.1603283563168221 0  0.4 0.1603283563168221 0  0.42 0.1603283563168221 0  0.44 0.1603283563168221 0  0.46 0.1603283563168221 0  0.48 0.1603283563168221 0  0.5 0.1603283563168221 0  0.52 0.1603283563168221 0  0.54 0.1603283563168221 0  0.5600000000000001 0.1603283563168221 0  0.58 0.1603283563168221 0 
[...]
<PointData  Vectors="u_paraw"> 
<DataArray  type="Float64"  Name="u_paraw"  NumberOfComponents="3" format="ascii">-7.9859674499846515e-05 -4.3423194927144637e-04 0.0000000000000000e+00  -7.9859674491691661e-05 -4.3423194925919489e-04 0.0000000000000000e+00  -7.9859674493887184e-05 -4.3423194925688554e-04 0.0000000000000000e+00  -7.9859674496231311e-05 -4.3423194926898518e-04 0.0000000000000000e+00  -7.9859674491262453e-05 -4.3423194927439535e-04 0.0000000000000000e+00  -7.9859674494861150e-05 -4.3423194925796990e-04 0.0000000000000000e+00  -7.9859674492797669e-05 -4.3423194926142791e-04 0.0000000000000000e+00  -7.9859674491229425e-05 -4.3423194926645920e-04 0.0000000000000000e+00  -7.9859674494035761e-05 -4.3423194925790485e-04 0.0000000000000000e+00  -7.9859674494448449e-05 -4.3423194926280485e-04 0.0000000000000000e+00  -7.9859674489331028e-05 -4.3423194925444624e-04 0.0000000000000000e+00  -7.9859674490123403e-05 -4.3423194925624602e-04 0.0000000000000000e+00  -7.9859674494679560e-05 -4.3423194927766926e-04 0.0000000000000000e+00  -7.9859674496049707e-05 -4.3423194926656703e-04 0.0000000000000000e+00  -7.9859674491757676e-05 -4.3423194925981375e-04 0.0000000000000000e+00  -7.9859674493078302e-05 -4.3423194925986666e-04 0.0000000000000000e+00  -7.9859674485880893e-05 -4.3423194924725739e-04 0.0000000000000000e+00  -7.9859674500704905e-05 -4.3423194927273744e-04 0.0000000000000000e+00  -7.9859674492533544e-05 -4.3423194925831625e-04 0.0000000000000000e+00  -7.9859674493441469e-05 -4.3423194926278316e-04 0.0000000000000000e+00  -7.9859674485798358e-05 -4.3423194925627925e-04 0.0000000000000000e+00  -7.9859674492302433e-05 -4.3423194925956308e-04 0.0000000000000000e+00  -7.9859674486524706e-05 -4.3423194925667910e-04 0.0000000000000000e+00  -7.9859674492550051e-05 -4.3423194926000891e-04 0.0000000000000000e+00  -7.9859674489132931e-05 -4.3423194926027866e-04 0.0000000000000000e+00  -7.9859674491625620e-05 -4.3423194925934624e-04 0.0000000000000000e+00  -7.9859674489314521e-05 -4.3423194926370473e-04 0.0000000000000000e+00  -7.9859674494151309e-05 -4.3423194926548283e-04 0.0000000000000000e+00  -7.9859674500391259e-05 -4.3423194926942086e-04 0.0000000000000000e+00  -7.9859674497634458e-05 -4.3423194926510335e-04 0.0000000000000000e+00  -7.9859674483619329e-05 -4.3423194925000042e-04 0.0000000000000000e+00  -7.9859674498113187e-05 -4.3423194927293129e-04 0.0000000000000000e+00  -7.9859674488637708e-05 -4.3423194926319516e-04 0.0000000000000000e+00  -7.9859674502091559e-05 -4.3423194927145678e-04 0.0000000000000000e+00  -7.9859674489248493e-05 -4.3423194925774401e-04 0.0000000000000000e+00  -7.9859674490552612e-05 -4.3423194925807772e-04 0.0000000000000000e+00  -7.9859674493210371e-05 -4.3423194925876077e-04 0.0000000000000000e+00  -7.9859674493226878e-05 -4.3423194926663208e-04 0.0000000000000000e+00  -7.9859674493590045e-05 -4.3423194926083160e-04 0.0000000000000000e+00  -7.9859674493738608e-05 -4.3423194926411673e-04 0.0000000000000000e+00  -7.9859674493573538e-05 -4.3423194926329512e-04 0.0000000000000000e+00  -7.9859674493358934e-05 -4.3423194926170980e-04 0.0000000000000000e+00  -7.9859674498047146e-05 -4.3423194926769460e-04 0.0000000000000000e+00  -7.9859674489050396e-05 -4.3423194926207843e-04 0.0000000000000000e+00  -7.9859674493903691e-05 -4.3423194926446368e-04 0.0000000000000000e+00  -7.9859674493788142e-05 -4.3423194926517925e-04 0.0000000000000000e+00  -7.9859674489149437e-05 -4.3423194926050872e-04 0.0000000000000000e+00  -7.9859674484015523e-05 -4.3423194925136651e-04 0.0000000000000000e+00  -7.9859674497535402e-05 -4.3423194926324937e-04 0.0000000000000000e+00  -7.9859674498245243e-05 -4.3423194926487567e-04 0.0000000000000000e+00  -7.9859674499846501e-05 -6.9557841292397247e-15 0.0000000000000000e+00  3.9992795039067600e-05 -5.5780371307242817e-05 0.0000000000000000e+00  3.9992795049981226e-05 -5.5780371300000347e-05 0.0000000000000000e+00  3.9992795043240457e-05 -5.5780371304879283e-05 0.0000000000000000e+00  3.9992795037270067e-05 -5.5780371312815616e-05 0.0000000000000000e+00  3.9992795035023146e-05 -5.5780371306635664e-05 0.0000000000000000e+00  3.9992795043786142e-05 -5.5780371309042633e-05 0.0000000000000000e+00  3.9992795046803443e-05 -5.5780371303795027e-05 0.0000000000000000e+00  3.9992795043208364e-05 -5.5780371318713717e-05 0.0000000000000000e+00  3.9992795037366364e-05 -5.5780371319624447e-05 0.0000000000000000e+00  3.9992795040191070e-05 -5.5780371317889655e-05 0.0000000000000000e+00  3.9992795042502190e-05 -5.5780371316566996e-05 0.0000000000000000e+00  3.9992795040736749e-05 -5.5780371315504478e-05 0.0000000000000000e+00  3.9992795038746615e-05 -5.5780371317759551e-05 0.0000000000000000e+00  3.9992795045904673e-05 -5.5780371304055236e-05 0.0000000000000000e+00  3.9992795048665181e-05 -5.5780371304228843e-05 0.0000000000000000e+00  3.9992795041121939e-05 -5.5780371316827137e-05 0.0000000000000000e+00  3.9992795048793578e-05 -5.5780371316371772e-05 0.0000000000000000e+00  3.9992795034220674e-05 -5.5780371312186887e-05 0.0000000000000000e+00  3.9992795043914539e-05 -5.5780371309367826e-05 0.0000000000000000e+00  3.9992795032647822e-05 -5.5780371320535109e-05 0.0000000000000000e+00  3.9992795051072598e-05 -5.5780371303925267e-05 0.0000000000000000e+00  3.9992795044075035e-05 -5.5780371313270954e-05 0.0000000000000000e+00  3.9992795038489828e-05 -5.5780371318843753e-05 0.0000000000000000e+00  3.9992795046321956e-05 -5.5780371311406262e-05 0.0000000000000000e+00  3.9992795042373793e-05 -5.5780371310126768e-05 0.0000000000000000e+00  3.9992795041507122e-05 -5.5780371318301652e-05 0.0000000000000000e+00  3.9992795043818242e-05 -5.5780371316957241e-05 0.0000000000000000e+00  3.9992795033546591e-05 -5.5780371315395990e-05 0.0000000000000000e+00  3.9992795036563892e-05 -5.5780371315764931e-05 0.0000000000000000e+00  3.9992795042791082e-05 -5.5780371316610297e-05 0.0000000000000000e+00  3.9992795044620714e-05 -5.5780371321055526e-05 0.0000000000000000e+00  3.9992795042117000e-05 -5.5780371315157466e-05 0.0000000000000000e+00  3.9992795044171332e-05 -5.5780371315786303e-05 0.0000000000000000e+00  3.9992795042566388e-05 -5.5780371312165068e-05 0.0000000000000000e+00  3.9992795048440487e-05 -5.5780371310474024e-05 0.0000000000000000e+00  3.9992795039516988e-05 -5.5780371310040032e-05 0.0000000000000000e+00  3.9992795039966376e-05 -5.5780371326563273e-05 0.0000000000000000e+00  3.9992795040800948e-05 -5.5780371309476246e-05 0.0000000000000000e+00  3.9992795044684912e-05 -5.5780371315092414e-05 0.0000000000000000e+00  3.9992795045005904e-05 -5.5780371306050168e-05 0.0000000000000000e+00  3.9992795039902178e-05 -5.5780371309780135e-05 0.0000000000000000e+00  3.9992795045005904e-05 -5.5780371315873039e-05 0.0000000000000000e+00  3.9992795045840475e-05 -5.5780371312208436e-05 0.0000000000000000e+00  3.9992795041442924e-05 -5.5780371309411194e-05 0.0000000000000000e+00  3.9992795037430563e-05 -5.5780371314983993e-05 0.0000000000000000e+00  3.9992795041282428e-05 -5.5780371323527507e-05 0.0000000000000000e+00  3.9992795053768907e-05 -5.5780371305616798e-05 0.0000000000000000e+00  3.9992795043112067e-05 -5.5780371319971323e-05 0.0000000000000000e+00  3.9992795043240463e-05 -5.5780371302862613e-05 0.0000000000000000e+00  3.9992795040415758e-05 -5.5780371313270954e-05 0.0000000000000000e+00  3.9992795039067606e-05 -5.5030647340896402e-04 0.0000000000000000e+00  -4.7826958057229042e-05 2.0457742274855063e-04 0.0000000000000000e+00  -4.7826958056082227e-05 2.0457742274915779e-04 0.0000000000000000e+00  -4.7826958068093595e-05 2.0457742274113472e-04 0.0000000000000000e+00  -4.7826958059522665e-05 2.0457742275891552e-04 0.0000000000000000e+00  -4.7826958065498178e-05 2.0457742276281865e-04 0.0000000000000000e+00  -4.7826958068093595e-05 2.0457742274208890e-04 0.0000000000000000e+00  -4.7826958058436213e-05 2.0457742275436177e-04 0.0000000000000000e+00  -4.7826958064713513e-05 2.0457742274954821e-04 0.0000000000000000e+00  -4.7826958067912520e-05 2.0457742275184672e-04 0.0000000000000000e+00  -4.7826958053245365e-05 2.0457742275271378e-04 0.0000000000000000e+00  -4.7826958073043005e-05 2.0457742273731841e-04 0.0000000000000000e+00  -4.7826958059703747e-05 2.0457742274404046e-04 0.0000000000000000e+00  -4.7826958061454144e-05 2.0457742274482079e-04 0.0000000000000000e+00  -4.7826958056504734e-05 2.0457742275267041e-04 0.0000000000000000e+00  -4.7826958058738008e-05 2.0457742273497680e-04 0.0000000000000000e+00  -4.7826958067490013e-05 2.0457742273662422e-04 0.0000000000000000e+00  -4.7826958055538995e-05 2.0457742274820350e-04 0.0000000000000000e+00  -4.7826958061997370e-05 2.0457742274642598e-04 0.0000000000000000e+00  -4.7826958060971274e-05 2.0457742275267041e-04 0.0000000000000000e+00  -4.7826958065860328e-05 2.0457742274746624e-04 0.0000000000000000e+00  -4.7826958059703747e-05 2.0457742274690303e-04 0.0000000000000000e+00  -4.7826958062721678e-05 2.0457742274512436e-04 0.0000000000000000e+00  -4.7826958059462309e-05 2.0457742274829023e-04 0.0000000000000000e+00  -4.7826958060307329e-05 2.0457742274512493e-04 0.0000000000000000e+00  -4.7826958058255138e-05 2.0457742275718069e-04 0.0000000000000000e+00  -4.7826958059583028e-05 2.0457742275744090e-04 0.0000000000000000e+00  -4.7826958057892987e-05 2.0457742274360648e-04 0.0000000000000000e+00  -4.7826958062782034e-05 2.0457742274716266e-04 0.0000000000000000e+00  -4.7826958073706950e-05 2.0457742273710241e-04 0.0000000000000000e+00  -4.7826958062540603e-05 2.0457742274698919e-04 0.0000000000000000e+00  -4.7826958065860328e-05 2.0457742273627727e-04 0.0000000000000000e+00  -4.7826958058738008e-05 2.0457742274737950e-04 0.0000000000000000e+00  -4.7826958064411719e-05 2.0457742274109113e-04 0.0000000000000000e+00  -4.7826958064411719e-05 2.0457742274039724e-04 0.0000000000000000e+00  -4.7826958065136020e-05 2.0457742273870703e-04 0.0000000000000000e+00  -4.7826958060428049e-05 2.0457742275570618e-04 0.0000000000000000e+00  -4.7826958066403554e-05 2.0457742274239217e-04 0.0000000000000000e+00  -4.7826958059220877e-05 2.0457742273749158e-04 0.0000000000000000e+00  -4.7826958059824460e-05 2.0457742274937444e-04 0.0000000000000000e+00  -4.7826958058013700e-05 2.0457742274165492e-04 0.0000000000000000e+00  -4.7826958066162123e-05 2.0457742274460509e-04 0.0000000000000000e+00  -4.7826958063083829e-05 2.0457742275410156e-04 0.0000000000000000e+00  -4.7826958061635220e-05 2.0457742274759635e-04 0.0000000000000000e+00  -4.7826958057953343e-05 2.0457742275214999e-04 0.0000000000000000e+00  -4.7826958064291000e-05 2.0457742275722406e-04 0.0000000000000000e+00  -4.7826958068757540e-05 2.0457742274959128e-04 0.0000000000000000e+00  -4.7826958055176844e-05 2.0457742274195963e-04 0.0000000000000000e+00  -4.7826958065256739e-05 2.0457742274317280e-04 0.0000000000000000e+00  -4.7826958054030029e-05 2.0457742275683375e-04 0.0000000000000000e+00  -4.7826958057651549e-05 2.0457742276273181e-04 0.0000000000000000e+00  -4.7826958057229042e-05 2.9140412686317978e-04 0.0000000000000000e+00  1.3627984889236095e-04 5.4066166398367491e-04 0.0000000000000000e+00  1.3627984887743772e-04 5.4066166396121024e-04 0.0000000000000000e+00  1.3627984889257722e-04 5.4066166397708307e-04 0.0000000000000000e+00  1.3627984889365860e-04 5.4066166397404708e-04 0.0000000000000000e+00  1.3627984889820046e-04 5.4066166398523605e-04 0.0000000000000000e+00  1.3627984889268534e-04 5.4066166397717002e-04 0.0000000000000000e+00  1.3627984888814351e-04 5.4066166398167954e-04 0.0000000000000000e+00  1.3627984889311788e-04 5.4066166398350176e-04 0.0000000000000000e+00  1.3627984888533187e-04 5.4066166397569550e-04 0.0000000000000000e+00  1.3627984888673771e-04 5.4066166397630190e-04 0.0000000000000000e+00  1.3627984889095512e-04 5.4066166397916495e-04 0.0000000000000000e+00  1.3627984889538883e-04 5.4066166397795064e-04 0.0000000000000000e+00  1.3627984888598072e-04 5.4066166397742947e-04 0.0000000000000000e+00  1.3627984888749467e-04 5.4066166397179162e-04 0.0000000000000000e+00  1.3627984888911674e-04 5.4066166397300733e-04 0.0000000000000000e+00  1.3627984888868420e-04 5.4066166396563335e-04 0.0000000000000000e+00  1.3627984889960626e-04 5.4066166397595495e-04 0.0000000000000000e+00  1.3627984889311788e-04 5.4066166397812477e-04 0.0000000000000000e+00  1.3627984888489933e-04 5.4066166397326613e-04 0.0000000000000000e+00  1.3627984889095512e-04 5.4066166397396002e-04 0.0000000000000000e+00  1.3627984889344230e-04 5.4066166398029317e-04 0.0000000000000000e+00  1.3627984889192838e-04 5.4066166397751620e-04 0.0000000000000000e+00  1.3627984888727840e-04 5.4066166396927627e-04 0.0000000000000000e+00  1.3627984889257719e-04 5.4066166397534921e-04 0.0000000000000000e+00  1.3627984889376675e-04 5.4066166397560801e-04 0.0000000000000000e+00  1.3627984889376675e-04 5.4066166397925093e-04 0.0000000000000000e+00  1.3627984888068189e-04 5.4066166397873051e-04 0.0000000000000000e+00  1.3627984889095512e-04 5.4066166397881725e-04 0.0000000000000000e+00  1.3627984888381795e-04 5.4066166396884551e-04 0.0000000000000000e+00  1.3627984888890047e-04 5.4066166396545988e-04 0.0000000000000000e+00  1.3627984889246907e-04 5.4066166398315406e-04 0.0000000000000000e+00  1.3627984888879235e-04 5.4066166396927627e-04 0.0000000000000000e+00  1.3627984888857605e-04 5.4066166397248551e-04 0.0000000000000000e+00  1.3627984889365860e-04 5.4066166397647537e-04 0.0000000000000000e+00  1.3627984889376675e-04 5.4066166397951406e-04 0.0000000000000000e+00  1.3627984888900862e-04 5.4066166397968461e-04 0.0000000000000000e+00  1.3627984888684583e-04 5.4066166397291919e-04 0.0000000000000000e+00  1.3627984889636209e-04 5.4066166397699579e-04 0.0000000000000000e+00  1.3627984889052257e-04 5.4066166397213856e-04 0.0000000000000000e+00  1.3627984889419929e-04 5.4066166398159280e-04 0.0000000000000000e+00  1.3627984888954931e-04 5.4066166396901899e-04 0.0000000000000000e+00  1.3627984889452371e-04 5.4066166397317940e-04 0.0000000000000000e+00  1.3627984889874115e-04 5.4066166398228669e-04 0.0000000000000000e+00  1.3627984888208772e-04 5.4066166396762828e-04 0.0000000000000000e+00  1.3627984889830858e-04 5.4066166397794988e-04 0.0000000000000000e+00  1.3627984889311791e-04 5.4066166399399608e-04 0.0000000000000000e+00  1.3627984889041442e-04 5.4066166397283538e-04 0.0000000000000000e+00  1.3627984889073884e-04 5.4066166397023037e-04 0.0000000000000000e+00  1.3627984889333418e-04 5.4066166397474065e-04 0.0000000000000000e+00  1.3627984889073884e-04 5.4066166398228669e-04 0.0000000000000000e+00  1.3627984889236095e-04 3.4359709405055858e-04 0.0000000000000000e+00  -1.4515030452963754e-04 1.6452831006815574e-04 0.0000000000000000e+00  -1.4515030453167121e-04 1.6452831008368152e-04 0.0000000000000000e+00  -1.4515030453202493e-04 1.6452831005740051e-04 0.0000000000000000e+00  -1.4515030453874484e-04 1.6452831005774735e-04 0.0000000000000000e+00  -1.4515030452813440e-04 1.6452831007275271e-04 0.0000000000000000e+00  -1.4515030453671117e-04 1.6452831006867624e-04 0.0000000000000000e+00  -1.4515030454458061e-04 1.6452831006511984e-04 0.0000000000000000e+00  -1.4515030453379332e-04 1.6452831007596208e-04 0.0000000000000000e+00  -1.4515030454891319e-04 1.6452831006538027e-04 0.0000000000000000e+00  -1.4515030453786065e-04 1.6452831006824234e-04 0.0000000000000000e+00  -1.4515030454369639e-04 1.6452831005705359e-04 0.0000000000000000e+00  -1.4515030454431533e-04 1.6452831006425270e-04 0.0000000000000000e+00  -1.4515030454502270e-04 1.6452831006442595e-04 0.0000000000000000e+00  -1.4515030453405857e-04 1.6452831007145158e-04 0.0000000000000000e+00  -1.4515030454237009e-04 1.6452831006529375e-04 0.0000000000000000e+00  -1.4515030453812592e-04 1.6452831005870136e-04 0.0000000000000000e+00  -1.4515030452583546e-04 1.6452831006668109e-04 0.0000000000000000e+00  -1.4515030453467751e-04 1.6452831007570209e-04 0.0000000000000000e+00  -1.4515030453697645e-04 1.6452831006034935e-04 0.0000000000000000e+00  -1.4515030454245850e-04 1.6452831006034935e-04 0.0000000000000000e+00  -1.4515030453361645e-04 1.6452831007032445e-04 0.0000000000000000e+00  -1.4515030453892170e-04 1.6452831006165039e-04 0.0000000000000000e+00  -1.4515030453892170e-04 1.6452831006173713e-04 0.0000000000000000e+00  -1.4515030453874484e-04 1.6452831005835485e-04 0.0000000000000000e+00  -1.4515030453052176e-04 1.6452831007370672e-04 0.0000000000000000e+00  -1.4515030453998273e-04 1.6452831006000241e-04 0.0000000000000000e+00  -1.4515030453282068e-04 1.6452831007058422e-04 0.0000000000000000e+00  -1.4515030452893018e-04 1.6452831007249242e-04 0.0000000000000000e+00  -1.4515030453529645e-04 1.6452831007526892e-04 0.0000000000000000e+00  -1.4515030453432384e-04 1.6452831006260449e-04 0.0000000000000000e+00  -1.4515030453839117e-04 1.6452831005896157e-04 0.0000000000000000e+00  -1.4515030453591540e-04 1.6452831006598720e-04 0.0000000000000000e+00  -1.4515030453671117e-04 1.6452831006668109e-04 0.0000000000000000e+00  -1.4515030453494279e-04 1.6452831006043609e-04 0.0000000000000000e+00  -1.4515030452433232e-04 1.6452831007526892e-04 0.0000000000000000e+00  -1.4515030453733012e-04 1.6452831006347185e-04 0.0000000000000000e+00  -1.4515030453432384e-04 1.6452831007119137e-04 0.0000000000000000e+00  -1.4515030454210484e-04 1.6452831005523192e-04 0.0000000000000000e+00  -1.4515030453246701e-04 1.6452831006112998e-04 0.0000000000000000e+00  -1.4515030453945223e-04 1.6452831004985427e-04 0.0000000000000000e+00  -1.4515030452769229e-04 1.6452831008255476e-04 0.0000000000000000e+00  -1.4515030453122912e-04 1.6452831006251776e-04 0.0000000000000000e+00  -1.4515030453299751e-04 1.6452831006112998e-04 0.0000000000000000e+00  -1.4515030453494279e-04 1.6452831006780866e-04 0.0000000000000000e+00  -1.4515030452910701e-04 1.6452831006867602e-04 0.0000000000000000e+00  -1.4515030453511962e-04 1.6452831006286470e-04 0.0000000000000000e+00  -1.4515030453671117e-04 1.6452831006442690e-04 0.0000000000000000e+00  -1.4515030453246701e-04 1.6452831007301283e-04 0.0000000000000000e+00  -1.4515030453034490e-04 1.6452831006390553e-04 0.0000000000000000e+00  -1.4515030452751546e-04 1.6452831007734964e-04 0.0000000000000000e+00  -1.4515030452963754e-04 8.6662031823874175e-05 0.0000000000000000e+00  -4.8203355585655337e-04 -1.5708746844093208e-03 0.0000000000000000e+00  -4.8203355585488115e-04 -1.5708746843767080e-03 0.0000000000000000e+00  -4.8203355587787431e-04 -1.5708746844275356e-03 0.0000000000000000e+00  -4.8203355586595964e-04 -1.5708746843864222e-03 0.0000000000000000e+00  -4.8203355587181249e-04 -1.5708746843971775e-03 0.0000000000000000e+00  -4.8203355587223055e-04 -1.5708746844164340e-03 0.0000000000000000e+00  -4.8203355586752734e-04 -1.5708746844134826e-03 0.0000000000000000e+00  -4.8203355585195473e-04 -1.5708746843765354e-03 0.0000000000000000e+00  -4.8203355586512355e-04 -1.5708746844316996e-03 0.0000000000000000e+00  -4.8203355585822553e-04 -1.5708746844176459e-03 0.0000000000000000e+00  -4.8203355585456760e-04 -1.5708746843997807e-03 0.0000000000000000e+00  -4.8203355585697144e-04 -1.5708746844022093e-03 0.0000000000000000e+00  -4.8203355585310431e-04 -1.5708746843930128e-03 0.0000000000000000e+00  -4.8203355585592621e-04 -1.5708746843832984e-03 0.0000000000000000e+00  -4.8203355586857246e-04 -1.5708746844039462e-03 0.0000000000000000e+00  -4.8203355586062937e-04 -1.5708746843970027e-03 0.0000000000000000e+00  -4.8203355586146551e-04 -1.5708746843857270e-03 0.0000000000000000e+00  -4.8203355586721379e-04 -1.5708746844127932e-03 0.0000000000000000e+00  -4.8203355586021131e-04 -1.5708746843978701e-03 0.0000000000000000e+00  -4.8203355586899052e-04 -1.5708746843987374e-03 0.0000000000000000e+00  -4.8203355586867697e-04 -1.5708746844041196e-03 0.0000000000000000e+00  -4.8203355586062937e-04 -1.5708746843911047e-03 0.0000000000000000e+00  -4.8203355586021131e-04 -1.5708746843800024e-03 0.0000000000000000e+00  -4.8203355586355580e-04 -1.5708746843926705e-03 0.0000000000000000e+00  -4.8203355585937522e-04 -1.5708746843926659e-03 0.000