<?xml version="1.0"?>
<VTKFile type="UnstructuredGrid"  version="0.1"  >
<UnstructuredGrid>
<Piece  NumberOfPoints="2601" NumberOfCells="5000">
<Points>
<DataArray  type="Float64"  NumberOfComponents="3"  format="ascii">0 0 0  0.02 0 0  0.04 0 0  0.06 0 0  0.08 0 0  0.1 0 0  0.12 0 0  0.14 0 0  0.16 0 0  0.18 0 0  0.2 0 0  0.22 0 0  0.24 0 0  0.26 0 0  0.28 0 0  0.3 0 0  0.32 0 0  0.34 0 0  0.36 0 0  0.38 0 0  0.4 0 0  0.42 0 0  0.44 0 0  0.46 0 0  0.48 0 0  0.5 0 0  0.52 0 0  0.54 0 0  0.5600000000000001 0 0  0.58 0 0  0.6 0 0  0.62 0 0  0.64 0 0  0.66 0 0  0.68 0 0  0.7 0 0  0.72 0 0  0.74 0 0  0.76 0 0  0.78 0 0  0.8 0 0  0.82 0 0  0.84 0 0  0.86 0 0  0.88 0 0  0.9 0 0  0.92 0 0  0.9399999999999999 0 0  0.96 0 0  0.98 0 0  1 0 0  0 0.01313563088723984 0  0.02 0.01313563088723984 0  0.04 0.01313563088723984 0  0.06 0.01313563088723984 0  0.08 0.01313563088723984 0  0.1 0.01313563088723984 0  0.12 0.01313563088723984 0  0.14 0.01313563088723984 0  0.16 0.01313563088723984 0  0.18 0.01313563088723984 0  0.2 0.01313563088723984 0  0.22 0.01313563088723984 0  0.24 0.01313563088723984 0  0.26 0.01313563088723984 0  0.28 0.01313563088723984 0  0.3 0.01313563088723984 0  0.32 0.01313563088723984 0  0.34 0.01313563088723984 0  0.36 0.01313563088723984 0  0.38 0.01313563088723984 0  0.4 0.01313563088723984 0  0.42 0.01313563088723984 0  0.44 0.01313563088723984 0  0.46 0.01313563088723984 0  0.48 0.01313563088723984 0  0.5 0.01313563088723984 0  0.52 0.01313563088723984 0  0.54 0.01313563088723984 0  0.5600000000000001 0.01313563088723984 0  0.58 0.01313563088723984 0  0.6 0.01313563088723984 0  0.62 0.01313563088723984 0  0.64 0.01313563088723984 0  0.66 0.01313563088723984 0  0.68 0.01313563088723984 0  0.7 0.01313563088723984 0  0.72 0.01313563088723984 0  0.74 0.01313563088723984 0  0.76 0.01313563088723984 0  0.78 0.01313563088723984 0  0.8 0.01313563088723984 0  0.82 0.01313563088723984 0  0.84 0.01313563088723984 0  0.86 0.01313563088723984 0  0.88 0.01313563088723984 0  0.9 0.01313563088723984 0  0.92 0.01313563088723984 0  0.9399999999999999 0.01313563088723984 0  0.96 0.01313563088723984 0  0.98 0.01313563088723984 0  1 0.01313563088723984 0  0 0.02664639863733726 0  0.02 0.02664639863733726 0  0.04 0.02664639863733726 0  0.06 0.02664639863733726 0  0.08 0.02664639863733726 0  0.1 0.02664639863733726 0  0.12 0.02664639863733726 0  0.14 0.02664639863733726 0  0.16 0.02664639863733726 0  0.18 0.02664639863733726 0  0.2 0.02664639863733726 0  0.22 0.02664639863733726 0  0.24 0.02664639863733726 0  0.26 0.02664639863733726 0  0.28 0.02664639863733726 0  0.3 0.02664639863733726 0  0.32 0.02664639863733726 0  0.34 0.02664639863733726 0  0.36 0.02664639863733726 0  0.38 0.02664639863733726 0  0.4 0.02664639863733726 0  0.42 0.02664639863733726 0  0.44 0.02664639863733726 0  0.46 0.02664639863733726 0  0.48 0.02664639863733726 0  0.5 0.02664639863733726 0  0.52 0.02664639863733726 0  0.54 0.02664639863733726 0  0.5600000000000001 0.02664639863733726 0  0.58 0.02664639863733726 0  0.6 0.02664639863733726 0  0.62 0.02664639863733726 0  0.64 0.02664639863733726 0  0.66 0.02664639863733726 0  0.68 0.02664639863733726 0  0.7 0.02664639863733726 0  0.72 0.02664639863733726 0  0.74 0.02664639863733726 0  0.76 0.02664639863733726 0  0.78 0.02664639863733726 0  0.8 0.02664639863733726 0  0.82 0.02664639863733726 0  0.84 0.02664639863733726 0  0.86 0.02664639863733726 0  0.88 0.02664639863733726 0  0.9 0.02664639863733726 0  0.92 0.02664639863733726 0  0.9399999999999999 0.02664639863733726 0  0.96 0.02664639863733726 0  0.98 0.02664639863733726 0  1 0.02664639863733726 0  0 0.04101652939099896 0  0.02 0.04101652939099896 0  0.04 0.04101652939099896 0  0.06 0.04101652939099896 0  0.08 0.04101652939099896 0  0.1 0.04101652939099896 0  0.12 0.04101652939099896 0  0.14 0.04101652939099896 0  0.16 0.04101652939099896 0  0.18 0.04101652939099896 0  0.2 0.04101652939099896 0  0.22 0.04101652939099896 0  0.24 0.04101652939099896 0  0.26 0.04101652939099896 0  0.28 0.04101652939099896 0  0.3 0.04101652939099896 0  0.32 0.04101652939099896 0  0.34 0.04101652939099896 0  0.36 0.04101652939099896 0  0.38 0.04101652939099896 0  0.4 0.04101652939099896 0  0.42 0.04101652939099896 0  0.44 0.04101652939099896 0  0.46 0.04101652939099896 0  0.48 0.04101652939099896 0  0.5 0.04101652939099896 0  0.52 0.04101652939099896 0  0.54 0.04101652939099896 0  0.5600000000000001 0.04101652939099896 0  0.58 0.04101652939099896 0  0.6 0.04101652939099896 0  0.62 0.04101652939099896 0  0.64 0.04101652939099896 0  0.66 0.04101652939099896 0  0.68 0.04101652939099896 0  0.7 0.04101652939099896 0  0.72 0.04101652939099896 0  0.74 0.04101652939099896 0  0.76 0.04101652939099896 0  0.78 0.04101652939099896 0  0.8 0.04101652939099896 0  0.82 0.04101652939099896 0  0.84 0.04101652939099896 0  0.86 0.04101652939099896 0  0.88 0.04101652939099896 0  0.9 0.04101652939099896 0  0.92 0.04101652939099896 0  0.9399999999999999 0.04101652939099896 0  0.96 0.04101652939099896 0  0.98 0.04101652939099896 0  1 0.04101652939099896 0  0 0.05705811164099547 0  0.02 0.05705811164099547 0  0.04 0.05705811164099547 0  0.06 0.05705811164099547 0  0.08 0.05705811164099547 0  0.1 0.05705811164099547 0  0.12 0.05705811164099547 0  0.14 0.05705811164099547 0  0.16 0.05705811164099547 0  0.18 0.05705811164099547 0  0.2 0.05705811164099547 0  0.22 0.05705811164099547 0  0.24 0.05705811164099547 0  0.26 0.05705811164099547 0  0.28 0.05705811164099547 0  0.3 0.05705811164099547 0  0.32 0.05705811164099547 0  0.34 0.05705811164099547 0  0.36 0.05705811164099547 0  0.38 0.05705811164099547 0  0.4 0.05705811164099547 0  0.42 0.05705811164099547 0  0.44 0.05705811164099547 0  0.46 0.05705811164099547 0  0.48 0.05705811164099547 0  0.5 0.05705811164099547 0  0.52 0.05705811164099547 0  0.54 0.05705811164099547 0  0.5600000000000001 0.05705811164099547 0  0.58 0.05705811164099547 0  0.6 0.05705811164099547 0  0.62 0.05705811164099547 0  0.64 0.05705811164099547 0  0.66 0.05705811164099547 0  0.68 0.05705811164099547 0  0.7 0.05705811164099547 0  0.72 0.05705811164099547 0  0.74 0.05705811164099547 0  0.76 0.05705811164099547 0  0.78 0.05705811164099547 0  0.8 0.05705811164099547 0  0.82 0.05705811164099547 0  0.84 0.05705811164099547 0  0.86 0.05705811164099547 0  0.88 0.05705811164099547 0  0.9 0.05705811164099547 0  0.92 0.05705811164099547 0  0.9399999999999999 0.05705811164099547 0  0.96 0.05705811164099547 0  0.98 0.05705811164099547 0  1 0.05705811164099547 0  0 0.07667714377545 0  0.02 0.07667714377545 0  0.04 0.07667714377545 0  0.06 0.07667714377545 0  0.08 0.07667714377545 0  0.1 0.07667714377545 0  0.12 0.07667714377545 0  0.14 0.07667714377545 0  0.16 0.07667714377545 0  0.18 0.07667714377545 0  0.2 0.07667714377545 0  0.22 0.07667714377545 0  0.24 0.07667714377545 0  0.26 0.07667714377545 0  0.28 0.07667714377545 0  0.3 0.07667714377545 0  0.32 0.07667714377545 0  0.34 0.07667714377545 0  0.36 0.07667714377545 0  0.38 0.07667714377545 0  0.4 0.07667714377545 0  0.42 0.07667714377545 0  0.44 0.07667714377545 0  0.46 0.07667714377545 0  0.48 0.07667714377545 0  0.5 0.07667714377545 0  0.52 0.07667714377545 0  0.54 0.07667714377545 0  0.5600000000000001 0.07667714377545 0  0.58 0.07667714377545 0  0.6 0.07667714377545 0  0.62 0.07667714377545 0  0.64 0.07667714377545 0  0.66 0.07667714377545 0  0.68 0.07667714377545 0  0.7 0.07667714377545 0  0.72 0.07667714377545 0  0.74 0.07667714377545 0  0.76 0.07667714377545 0  0.78 0.07667714377545 0  0.8 0.07667714377545 0  0.82 0.07667714377545 0  0.84 0.07667714377545 0  0.86 0.07667714377545 0  0.88 0.07667714377545 0  0.9 0.07667714377545 0  0.92 0.07667714377545 0  0.9399999999999999 0.07667714377545 0  0.96 0.07667714377545 0  0.98 0.07667714377545 0  1 0.07667714377545 0  0 0.1098730133816912 0  0.02 0.1098730133816912 0  0.04 0.1098730133816912 0  0.06 0.1098730133816912 0  0.08 0.1098730133816912 0  0.1 0.1098730133816912 0  0.12 0.1098730133816912 0  0.14 0.1098730133816912 0  0.16 0.1098730133816912 0  0.18 0.1098730133816912 0  0.2 0.1098730133816912 0  0.22 0.1098730133816912 0  0.24 0.1098730133816912 0  0.26 0.1098730133816912 0  0.28 0.1098730133816912 0  0.3 0.1098730133816912 0  0.32 0.1098730133816912 0  0.34 0.1098730133816912 0  0.36 0.1098730133816912 0  0.38 0.1098730133816912 0  0.4 0.1098730133816912 0  0.42 0.1098730133816912 0  0.44 0.1098730133816912 0  0.46 0.1098730133816912 0  0.48 0.1098730133816912 0  0.5 0.1098730133816912 0  0.52 0.1098730133816912 0  0.54 0.1098730133816912 0  0.5600000000000001 0.1098730133816912 0  0.58 0.1098730133816912 0  0.6 0.1098730133816912 0  0.62 0.1098730133816912 0  0.64 0.1098730133816912 0  0.66 0.1098730133816912 0  0.68 0.1098730133816912 0  0.7 0.1098730133816912 0  0.72 0.1098730133816912 0  0.74 0.1098730133816912 0  0.76 0.1098730133816912 0  0.78 0.1098730133816912 0  0.8 0.1098730133816912 0  0.82 0.1098730133816912 0  0.84 0.1098730133816912 0  0.86 0.1098730133816912 0  0.88 0.1098730133816912 0  0.9 0.1098730133816912 0  0.92 0.1098730133816912 0  0.9399999999999999 0.1098730133816912 0  0.96 0.1098730133816912 0  0.98 0.1098730133816912 0  1 0.1098730133816912 0  0 0.1603283563168221 0  0.02 0.1603283563168221 0  0.04 0.1603283563168221 0  0.06 0.1603283563168221 0  0.08 0.1603283563168221 0  0.1 0.1603283563168221 0  0.12 0.1603283563168221 0  0.14 0.1603283563168221 0  0.16 0.1603283563168221 0  0.18 0.1603283563168221 0  0.2 0.1603283563168221 0  0.22 0.1603283563168221 0  0.24 0.1603283563168221 0  0.26 0.1603283563168221 0  0.28 0.1603283563168221 0  0.3 0.1603283563168221 0  0.32 0.1603283563168221 0  0.34 0.1603283563168221 0  0.36 0.1603283563168221 0  0.38 0.1603283563168221 0  0.4 0.1603283563168221 0  0.42 0.1603283563168221 0  0.44 0.1603283563168221 0  0.46 0.1603283563168221 0  0.48 0.1603283563168221 0  0.5 0.1603283563168221 0  0.52 0.1603283563168221 0  0.54 0.1603283563168221 0  0.5600000000000001 0.1603283563168221 0  0.58 0.1603283563168221 0 
[...]
<PointData  Vectors="u_paraw"> 
<DataArray  type="Float64"  Name="u_paraw"  NumberOfComponents="3" format="ascii">9.2088170373039153e-05 -5.4002705181157434e-05 0.0000000000000000e+00  9.2088170369176330e-05 -5.4002705182989736e-05 0.0000000000000000e+00  9.2088170374508328e-05 -5.4002705179878076e-05 0.0000000000000000e+00  9.2088170379246088e-05 -5.4002705181601950e-05 0.0000000000000000e+00  9.2088170375119127e-05 -5.4002705179281758e-05 0.0000000000000000e+00  9.2088170370876617e-05 -5.4002705183163235e-05 0.0000000000000000e+00  9.2088170373286744e-05 -5.4002705180842968e-05 0.0000000000000000e+00  9.2088170373765473e-05 -5.4002705182718713e-05 0.0000000000000000e+00  9.2088170376588316e-05 -5.4002705180203364e-05 0.0000000000000000e+00  9.2088170370876617e-05 -5.4002705179910554e-05 0.0000000000000000e+00  9.2088170371223277e-05 -5.4002705182566924e-05 0.0000000000000000e+00  9.2088170382382550e-05 -5.4002705178436114e-05 0.0000000000000000e+00  9.2088170368582025e-05 -5.4002705189614164e-05 0.0000000000000000e+00  9.2088170369770581e-05 -5.4002705185342407e-05 0.0000000000000000e+00  9.2088170373550869e-05 -5.4002705180409443e-05 0.0000000000000000e+00  9.2088170372857549e-05 -5.4002705176625422e-05 0.0000000000000000e+00  9.2088170377743858e-05 -5.4002705186849448e-05 0.0000000000000000e+00  9.2088170374689918e-05 -5.4002705179260189e-05 0.0000000000000000e+00  9.2088170376010544e-05 -5.4002705176408581e-05 0.0000000000000000e+00  9.2088170371008672e-05 -5.4002705186263979e-05 0.0000000000000000e+00  9.2088170376885455e-05 -5.4002705176007582e-05 0.0000000000000000e+00  9.2088170378437179e-05 -5.4002705185971245e-05 0.0000000000000000e+00  9.2088170376720371e-05 -5.4002705177872254e-05 0.0000000000000000e+00  9.2088170378156546e-05 -5.4002705182100799e-05 0.0000000000000000e+00  9.2088170370298832e-05 -5.4002705186220611e-05 0.0000000000000000e+00  9.2088170372973098e-05 -5.4002705191533202e-05 0.0000000000000000e+00  9.2088170379510186e-05 -5.4002705181634436e-05 0.0000000000000000e+00  9.2088170370546450e-05 -5.4002705177026577e-05 0.0000000000000000e+00  9.2088170376802906e-05 -5.4002705192368322e-05 0.0000000000000000e+00  9.2088170371454388e-05 -5.4002705188508278e-05 0.0000000000000000e+00  9.2088170376505767e-05 -5.4002705191197099e-05 0.0000000000000000e+00  9.2088170369374400e-05 -5.4002705183683578e-05 0.0000000000000000e+00  9.2088170368416941e-05 -5.4002705191847620e-05 0.0000000000000000e+00  9.2088170373088660e-05 -5.4002705189234693e-05 0.0000000000000000e+00  9.2088170376324190e-05 -5.4002705177861697e-05 0.0000000000000000e+00  9.2088170378635276e-05 -5.4002705174348597e-05 0.0000000000000000e+00  9.2088170373864529e-05 -5.4002705187315655e-05 0.0000000000000000e+00  9.2088170370183283e-05 -5.4002705181038125e-05 0.0000000000000000e+00  9.2088170367839170e-05 -5.4002705193831710e-05 0.0000000000000000e+00  9.2088170381623188e-05 -5.4002705173481236e-05 0.0000000000000000e+00  9.2088170373732459e-05 -5.4002705182729765e-05 0.0000000000000000e+00  9.2088170381738750e-05 -5.4002705178425197e-05 0.0000000000000000e+00  9.2088170374524835e-05 -5.4002705183596842e-05 0.0000000000000000e+00  9.2088170379823846e-05 -5.4002705175931532e-05 0.0000000000000000e+00  9.2088170362507159e-05 -5.4002705200391133e-05 0.0000000000000000e+00  9.2088170376406725e-05 -5.4002705186979553e-05 0.0000000000000000e+00  9.2088170376769892e-05 -5.4002705173177944e-05 0.0000000000000000e+00  9.2088170371190263e-05 -5.4002705180864652e-05 0.0000000000000000e+00  9.2088170381474625e-05 -5.4002705175638798e-05 0.0000000000000000e+00  9.2088170374739439e-05 -5.4002705190481526e-05 0.0000000000000000e+00  9.2088170373039139e-05 -3.7990640022848038e-15 0.0000000000000000e+00  -9.0118087825091417e-05 -1.6246509707690257e-04 0.0000000000000000e+00  -9.0118087826246974e-05 -1.6246509706389214e-04 0.0000000000000000e+00  -9.0118087828654390e-05 -1.6246509706207074e-04 0.0000000000000000e+00  -9.0118087829488982e-05 -1.6246509707996002e-04 0.0000000000000000e+00  -9.0118087821464246e-05 -1.6246509706185384e-04 0.0000000000000000e+00  -9.0118087832088994e-05 -1.6246509706289479e-04 0.0000000000000000e+00  -9.0118087827242054e-05 -1.6246509706874926e-04 0.0000000000000000e+00  -9.0118087829681577e-05 -1.6246509707334650e-04 0.0000000000000000e+00  -9.0118087832634673e-05 -1.6246509707503785e-04 0.0000000000000000e+00  -9.0118087826632177e-05 -1.6246509706755664e-04 0.0000000000000000e+00  -9.0118087827595138e-05 -1.6246509706697139e-04 0.0000000000000000e+00  -9.0118087827819839e-05 -1.6246509707518964e-04 0.0000000000000000e+00  -9.0118087837385308e-05 -1.6246509708772280e-04 0.0000000000000000e+00  -9.0118087832153192e-05 -1.6246509707180671e-04 0.0000000000000000e+00  -9.0118087827370451e-05 -1.6246509706822928e-04 0.0000000000000000e+00  -9.0118087829232189e-05 -1.6246509706662423e-04 0.0000000000000000e+00  -9.0118087832698871e-05 -1.6246509707787824e-04 0.0000000000000000e+00  -9.0118087827338345e-05 -1.6246509708258412e-04 0.0000000000000000e+00  -9.0118087822523512e-05 -1.6246509706705791e-04 0.0000000000000000e+00  -9.0118087837930987e-05 -1.6246509708022012e-04 0.0000000000000000e+00  -9.0118087828558113e-05 -1.6246509707451765e-04 0.0000000000000000e+00  -9.0118087829456876e-05 -1.6246509707263071e-04 0.0000000000000000e+00  -9.0118087825990194e-05 -1.6246509707150314e-04 0.0000000000000000e+00  -9.0118087834143327e-05 -1.6246509708045908e-04 0.0000000000000000e+00  -9.0118087828879105e-05 -1.6246509707690246e-04 0.0000000000000000e+00  -9.0118087826214895e-05 -1.6246509707104777e-04 0.0000000000000000e+00  -9.0118087828205016e-05 -1.6246509707714099e-04 0.0000000000000000e+00  -9.0118087830612446e-05 -1.6246509707356312e-04 0.0000000000000000e+00  -9.0118087832409985e-05 -1.6246509707794419e-04 0.0000000000000000e+00  -9.0118087823775372e-05 -1.6246509707328123e-04 0.0000000000000000e+00  -9.0118087831254416e-05 -1.6246509708455693e-04 0.0000000000000000e+00  -9.0118087840498906e-05 -1.6246509709448822e-04 0.0000000000000000e+00  -9.0118087828269214e-05 -1.6246509706625560e-04 0.0000000000000000e+00  -9.0118087828879105e-05 -1.6246509707995991e-04 0.0000000000000000e+00  -9.0118087825733401e-05 -1.6246509707480000e-04 0.0000000000000000e+00  -9.0118087828782801e-05 -1.6246509707256565e-04 0.0000000000000000e+00  -9.0118087834785296e-05 -1.6246509708180306e-04 0.0000000000000000e+00  -9.0118087835234684e-05 -1.6246509708570618e-04 0.0000000000000000e+00  -9.0118087832345787e-05 -1.6246509707115619e-04 0.0000000000000000e+00  -9.0118087826150697e-05 -1.6246509708201990e-04 0.0000000000000000e+00  -9.0118087830580340e-05 -1.6246509708061133e-04 0.0000000000000000e+00  -9.0118087827209962e-05 -1.6246509707896245e-04 0.0000000000000000e+00  -9.0118087835074182e-05 -1.6246509708540261e-04 0.0000000000000000e+00  -9.0118087822780305e-05 -1.6246509706942147e-04 0.0000000000000000e+00  -9.0118087834721098e-05 -1.6246509706963831e-04 0.0000000000000000e+00  -9.0118087822748213e-05 -1.6246509706963831e-04 0.0000000000000000e+00  -9.0118087829745775e-05 -1.6246509708067638e-04 0.0000000000000000e+00  -9.0118087829296387e-05 -1.6246509707271744e-04 0.0000000000000000e+00  -9.0118087830997622e-05 -1.6246509707573152e-04 0.0000000000000000e+00  -9.0118087830933424e-05 -1.6246509707208860e-04 0.0000000000000000e+00  -9.0118087825091431e-05 -4.6662579814890675e-04 0.0000000000000000e+00  -6.9829173339793350e-06 1.2672836396409627e-04 0.0000000000000000e+00  -6.9829173354883013e-06 1.2672836396084367e-04 0.0000000000000000e+00  -6.9829173383251578e-06 1.2672836396353251e-04 0.0000000000000000e+00  -6.9829173353675839e-06 1.2672836397151219e-04 0.0000000000000000e+00  -6.9829173330739551e-06 1.2672836397172903e-04 0.0000000000000000e+00  -6.9829173388683863e-06 1.2672836396041007e-04 0.0000000000000000e+00  -6.9829173358504537e-06 1.2672836397255294e-04 0.0000000000000000e+00  -6.9829173320478585e-06 1.2672836397159903e-04 0.0000000000000000e+00  -6.9829173415241666e-06 1.2672836396010649e-04 0.0000000000000000e+00  -6.9829173312028372e-06 1.2672836396695846e-04 0.0000000000000000e+00  -6.9829173429727742e-06 1.2672836396179784e-04 0.0000000000000000e+00  -6.9829173391098204e-06 1.2672836395780798e-04 0.0000000000000000e+00  -6.9829173400755590e-06 1.2672836396661151e-04 0.0000000000000000e+00  -6.9829173290902846e-06 1.2672836396904013e-04 0.0000000000000000e+00  -6.9829173339189763e-06 1.2672836396700218e-04 0.0000000000000000e+00  -6.9829173438177955e-06 1.2672836395386129e-04 0.0000000000000000e+00  -6.9829173437574368e-06 1.2672836395572612e-04 0.0000000000000000e+00  -6.9829173340396937e-06 1.2672836396869353e-04 0.0000000000000000e+00  -6.9829173339793350e-06 1.2672836396201450e-04 0.0000000000000000e+00  -6.9829173432745679e-06 1.2672836395750421e-04 0.0000000000000000e+00  -6.9829173377819302e-06 1.2672836395915255e-04 0.0000000000000000e+00  -6.9829173395926901e-06 1.2672836395633328e-04 0.0000000000000000e+00  -6.9829173366954749e-06 1.2672836396136397e-04 0.0000000000000000e+00  -6.9829173376008540e-06 1.2672836396548429e-04 0.0000000000000000e+00  -6.9829173365143987e-06 1.2672836396561405e-04 0.0000000000000000e+00  -6.9829173330135963e-06 1.2672836396292522e-04 0.0000000000000000e+00  -6.9829173345225627e-06 1.2672836396561405e-04 0.0000000000000000e+00  -6.9829173370576264e-06 1.2672836396860644e-04 0.0000000000000000e+00  -6.9829173438781542e-06 1.2672836395976006e-04 0.0000000000000000e+00  -6.9829173329532385e-06 1.2672836396240481e-04 0.0000000000000000e+00  -6.9829173412827326e-06 1.2672836396279512e-04 0.0000000000000000e+00  -6.9829173352468673e-06 1.2672836396648141e-04 0.0000000000000000e+00  -6.9829173295731535e-06 1.2672836396730540e-04 0.0000000000000000e+00  -6.9829173447835342e-06 1.2672836395676696e-04 0.0000000000000000e+00  -6.9829173399548416e-06 1.2672836396205857e-04 0.0000000000000000e+00  -6.9829173356090188e-06 1.2672836396721867e-04 0.0000000000000000e+00  -6.9829173394116140e-06 1.2672836396383595e-04 0.0000000000000000e+00  -6.9829173316857062e-06 1.2672836396439974e-04 0.0000000000000000e+00  -6.9829173339793350e-06 1.2672836396014967e-04 0.0000000000000000e+00  -6.9829173389287450e-06 1.2672836396027977e-04 0.0000000000000000e+00  -6.9829173374197787e-06 1.2672836397012503e-04 0.0000000000000000e+00  -6.9829173349450737e-06 1.2672836395776442e-04 0.0000000000000000e+00  -6.9829173342207699e-06 1.2672836396270838e-04 0.0000000000000000e+00  -6.9829173390494616e-06 1.2672836396149408e-04 0.0000000000000000e+00  -6.9829173350054324e-06 1.2672836396001956e-04 0.0000000000000000e+00  -6.9829173415845254e-06 1.2672836396791255e-04 0.0000000000000000e+00  -6.9829173389891038e-06 1.2672836396522444e-04 0.0000000000000000e+00  -6.9829173380837238e-06 1.2672836396227470e-04 0.0000000000000000e+00  -6.9829173369972677e-06 1.2672836396175429e-04 0.0000000000000000e+00  -6.9829173268570144e-06 1.2672836397133863e-04 0.0000000000000000e+00  -6.9829173339793350e-06 5.2289091075207177e-04 0.0000000000000000e+00  2.8487176775648915e-04 2.3822164589345357e-04 0.0000000000000000e+00  2.8487176775400194e-04 2.3822164589475461e-04 0.0000000000000000e+00  2.8487176775886822e-04 2.3822164589093825e-04 0.0000000000000000e+00  2.8487176777162863e-04 2.3822164591175488e-04 0.0000000000000000e+00  2.8487176776308566e-04 2.3822164589371375e-04 0.0000000000000000e+00  2.8487176776481582e-04 2.3822164589553537e-04 0.0000000000000000e+00  2.8487176774989265e-04 2.3822164589501463e-04 0.0000000000000000e+00  2.8487176775800308e-04 2.3822164589596906e-04 0.0000000000000000e+00  2.8487176775821938e-04 2.3822164589154551e-04 0.0000000000000000e+00  2.8487176776535657e-04 2.3822164590230047e-04 0.0000000000000000e+00  2.8487176775843562e-04 2.3822164589206593e-04 0.0000000000000000e+00  2.8487176775919261e-04 2.3822164589579558e-04 0.0000000000000000e+00  2.8487176775735429e-04 2.3822164590151985e-04 0.0000000000000000e+00  2.8487176775508338e-04 2.3822164588981046e-04 0.0000000000000000e+00  2.8487176776059844e-04 2.3822164589093868e-04 0.0000000000000000e+00  2.8487176775584031e-04 2.3822164589327991e-04 0.0000000000000000e+00  2.8487176775162287e-04 2.3822164588972373e-04 0.0000000000000000e+00  2.8487176775897631e-04 2.3822164589900515e-04 0.0000000000000000e+00  2.8487176776286936e-04 2.3822164589484116e-04 0.0000000000000000e+00  2.8487176775216357e-04 2.3822164589839734e-04 0.0000000000000000e+00  2.8487176775724609e-04 2.3822164588599472e-04 0.0000000000000000e+00  2.8487176775778683e-04 2.3822164589761672e-04 0.0000000000000000e+00  2.8487176775529962e-04 2.3822164589388706e-04 0.0000000000000000e+00  2.8487176776503212e-04 2.3822164590247459e-04 0.0000000000000000e+00  2.8487176776232867e-04 2.3822164589640241e-04 0.0000000000000000e+00  2.8487176776049029e-04 2.3822164590325457e-04 0.0000000000000000e+00  2.8487176775486708e-04 2.3822164589432074e-04 0.0000000000000000e+00  2.8487176775043334e-04 2.3822164588052969e-04 0.0000000000000000e+00  2.8487176775692169e-04 2.3822164588443415e-04 0.0000000000000000e+00  2.8487176775778683e-04 2.3822164589570852e-04 0.0000000000000000e+00  2.8487176775573216e-04 2.3822164589874429e-04 0.0000000000000000e+00  2.8487176775346125e-04 2.3822164590134637e-04 0.0000000000000000e+00  2.8487176776254496e-04 2.3822164589293296e-04 0.0000000000000000e+00  2.8487176775389384e-04 2.3822164589692283e-04 0.0000000000000000e+00  2.8487176776373450e-04 2.3822164589388839e-04 0.0000000000000000e+00  2.8487176775097409e-04 2.3822164589744325e-04 0.0000000000000000e+00  2.8487176775724614e-04 2.3822164590368825e-04 0.0000000000000000e+00  2.8487176776449143e-04 2.3822164589926470e-04 0.0000000000000000e+00  2.8487176775605661e-04 2.3822164589553505e-04 0.0000000000000000e+00  2.8487176776038214e-04 2.3822164589839734e-04 0.0000000000000000e+00  2.8487176776351820e-04 2.3822164589475575e-04 0.0000000000000000e+00  2.8487176775692169e-04 2.3822164589232581e-04 0.0000000000000000e+00  2.8487176776632980e-04 2.3822164590811179e-04 0.0000000000000000e+00  2.8487176776146358e-04 2.3822164589171866e-04 0.0000000000000000e+00  2.8487176776535657e-04 2.3822164589544831e-04 0.0000000000000000e+00  2.8487176775930076e-04 2.3822164590446888e-04 0.0000000000000000e+00  2.8487176775886822e-04 2.3822164589215367e-04 0.0000000000000000e+00  2.8487176775789498e-04 2.3822164590325457e-04 0.0000000000000000e+00  2.8487176776049029e-04 2.3822164589752998e-04 0.0000000000000000e+00  2.8487176775962521e-04 2.3822164590282089e-04 0.0000000000000000e+00  2.8487176775648915e-04 -2.1825616010012197e-04 0.0000000000000000e+00  -3.8433305773006985e-04 -1.2326935668495809e-03 0.0000000000000000e+00  -3.8433305772750566e-04 -1.2326935668527902e-03 0.0000000000000000e+00  -3.8433305772838993e-04 -1.2326935668344893e-03 0.0000000000000000e+00  -3.8433305773351826e-04 -1.2326935668478460e-03 0.0000000000000000e+00  -3.8433305772653302e-04 -1.2326935668423816e-03 0.0000000000000000e+00  -3.8433305773104249e-04 -1.2326935668350099e-03 0.0000000000000000e+00  -3.8433305774616239e-04 -1.2326935668565190e-03 0.0000000000000000e+00  -3.8433305773298771e-04 -1.2326935668409947e-03 0.0000000000000000e+00  -3.8433305773793926e-04 -1.2326935668500153e-03 0.0000000000000000e+00  -3.8433305773555190e-04 -1.2326935668514015e-03 0.0000000000000000e+00  -3.8433305774324448e-04 -1.2326935668546123e-03 0.0000000000000000e+00  -3.8433305773811609e-04 -1.2326935668606838e-03 0.0000000000000000e+00  -3.8433305774094559e-04 -1.2326935668528760e-03 0.0000000000000000e+00  -3.8433305773183824e-04 -1.2326935668451565e-03 0.0000000000000000e+00  -3.8433305773528665e-04 -1.2326935668517519e-03 0.0000000000000000e+00  -3.8433305772803616e-04 -1.2326935668346614e-03 0.0000000000000000e+00  -3.8433305773457932e-04 -1.2326935668387380e-03 0.0000000000000000e+00  -3.8433305772547197e-04 -1.2326935668296342e-03 0.0000000000000000e+00  -3.8433305773404876e-04 -1.2326935668420340e-03 0.0000000000000000e+00  -3.8433305773723193e-04 -1.2326935668504474e-03 0.0000000000000000e+00  -3.8433305772989302e-04 -1.2326935668325832e-03 0.0000000000000000e+00  -3.8433305773732034e-04 -1.2326935668446361e-03 0.0000000000000000e+00  -3.8433305773369510e-04 -1.2326935668420340e-03 0.0000000000000000e+00  -3.8433305773590562e-04 -1.2326935668446396e-03 0.0000000000000000e+00  -3.8433305773413718e-04 -1.2326935668521821e-03 0.0000000000000000e+00  -3.8433305772936246e-04 -1.2326935668416003e-03 0.0000000000000000e+00  -3.8433305773617087e-04 -1.2326935668566924e-03 0.0000000000000000e+00  -3.8433305773148457e-04 -1.2326935668539169e-03 0.0000000000000000e+00  -3.8433305772900880e-04 -1.2326935668413471e-03 0.0000000000000000e+00  -3.8433305772706358e-04 -1.2326935668456769e-03 0.0000000000000000e+00  -3.8433305773475615e-04 -1.2326935668461974e-03 0.0000000000000000e+00  -3.8433305773289929e-04 -1.2326935668531362e-03 0.0000000000000000e+00  -3.8433305773281088e-04 -1.2326935668487127e-03 0.0000000000000000e+00  -3.8433305773174982e-04 -1.2326935668457637e-03 0.0000000000000000e+00  -3.8433305772732883e-04 -1.2326935668383113e-03 0.0000000000000000e+00  -3.8433305773342985e-04 -1.2326935668462841e-03 0.0000000000000000e+00  -3.8433305773042352e-04 -1.2326935668398656e-03 0.0000000000000000e+00  -3.8433305774068029e-04 -1.2326935668606823e-03 0.0000000000000000e+00  -3.8433305772732883e-04 -1.2326935668433351e-03 0.0000000000000000e+00  -3.8433305773413718e-04 -1.2326935668483658e-03 0.0000000000000000e+00  -3.8433305772803616e-04 -1.2326935668454237e-03 0.0000000000000000e+00  -3.8433305773245721e-04 -1.2326935668535699e-03 0.0000000000000000e+00  -3.8433305772856671e-04 -1.2326935668402126e-03 0.0000000000000000e+00  -3.8433305773281088e-04 -1.2326935668504474e-03 0.0000000000000000e+00  -3.8433305771963625e-04 -1.2326935668371768e-03 0.0000000000000000e+00  -3.8433305772803616e-04 -1.2326935668484525e-03 0.0000000000000000e+00  -3.8433305773351826e-04 -1.2326935668379644e-03 0.0000000000000000e+00  -3.8433305773307613e-04 -1.2326935668474117e-03 0.0000000000000000e+00  -3.8433305772688674e-04 -1.2326935668409064e-03 0.0000000000000000e+00  -3.8433305772830146e-04 -1.2326935668445494e-03 0.0000000000000000e+00  -3.8433305773006985e-04 -6.7134847937086060e-04 0.0000000000000000e+00  -7.3499621939182726e-05 -7.5343576905195775e-04 0.0000000000000000e+00  -7.3499621934793117e-05 -7.5343576902957982e-04 0.0000000000000000e+00  -7.3499621935211185e-05 -7.5343576902576353e-04 0.0000000000000000e+00  -7.3499621950052233e-05 -7.5343576905213111e-04 0.0000000000000000e+00  -7.3499621949216109e-05 -7.5343576903998805e-04 0.0000000000000000e+00  -7.3499621951306397e-05 -7.5343576906045833e-04 0.0000000000000000e+00  -7.3499621941273014e-05 -7.5343576904449768e-04 0.0000000000000000e+00  -7.3499621941900103e-05 -7.5343576905577457e-04 0.0000000000000000e+00  -7.3499621935838261e-05 -7.5343576903703956e-04 0.0000000000000000e+00  -7.3499621933538939e-05 -7.5343576903304850e-04 0.0000000000000000e+00  -7.3499621934479579e-05 -7.5343576903322317e-04 0.0000000000000000e+00  -7.3499621943363302e-05 -7.5343576907312181e-04 0.0000000000000000e+00  -7.3499621933538939e-05 -7.5343576903304850e-04 0.0000000000000000e+00  -7.3499621937196942e-05 -7.5343576903894656e-04 0.0000000000000000e+00  -7.3499621938973692e-05 -7.5343576905005096e-04 0.0000000000000000e+00  -7.3499621939809802e-05 -7.5343576905074268e-04 0.0000000000000000e+00  -7.3499621941795586e-05 -7.5343576903235461e-04 0.0000000000000000e+00  -7.3499621947230325e-05 -7.5343576905421430e-04 0.0000000000000000e+00  -7.3499621939391747e-05 -7.5343576904345684e-04 0.0000000000000000e+00  -7.3499621942422661e-05 -7.5343576903565059e-04 0.0000000000000000e+00  -7.3499621950470274e-05 -7.5343576905421430e-04 0.0000000000000000e+00  -7.3499621945140038e-05 -7.5343576905091616e-04 0.0000000000000000e+00  -7.3499621945767127e-05 -7.5343576904154865e-04 0.0000000000000000e+00  -7.3499621945244555e-05 -7.5343576904571415e-04 0.0000000000000000e+00  -