<?xml version="1.0"?>
<VTKFile type="UnstructuredGrid"  version="0.1"  >
<UnstructuredGrid>
<Piece  NumberOfPoints="2601" NumberOfCells="5000">
<Points>
<DataArray  type="Float64"  NumberOfComponents="3"  format="ascii">0 0 0  0.02 0 0  0.04 0 0  0.06 0 0  0.08 0 0  0.1 0 0  0.12 0 0  0.14 0 0  0.16 0 0  0.18 0 0  0.2 0 0  0.22 0 0  0.24 0 0  0.26 0 0  0.28 0 0  0.3 0 0  0.32 0 0  0.34 0 0  0.36 0 0  0.38 0 0  0.4 0 0  0.42 0 0  0.44 0 0  0.46 0 0  0.48 0 0  0.5 0 0  0.52 0 0  0.54 0 0  0.5600000000000001 0 0  0.58 0 0  0.6 0 0  0.62 0 0  0.64 0 0  0.66 0 0  0.68 0 0  0.7 0 0  0.72 0 0  0.74 0 0  0.76 0 0  0.78 0 0  0.8 0 0  0.82 0 0  0.84 0 0  0.86 0 0  0.88 0 0  0.9 0 0  0.92 0 0  0.9399999999999999 0 0  0.96 0 0  0.98 0 0  1 0 0  0 0.01313563088723984 0  0.02 0.01313563088723984 0  0.04 0.01313563088723984 0  0.06 0.01313563088723984 0  0.08 0.01313563088723984 0  0.1 0.01313563088723984 0  0.12 0.01313563088723984 0  0.14 0.01313563088723984 0  0.16 0.01313563088723984 0  0.18 0.01313563088723984 0  0.2 0.01313563088723984 0  0.22 0.01313563088723984 0  0.24 0.01313563088723984 0  0.26 0.01313563088723984 0  0.28 0.01313563088723984 0  0.3 0.01313563088723984 0  0.32 0.01313563088723984 0  0.34 0.01313563088723984 0  0.36 0.01313563088723984 0  0.38 0.01313563088723984 0  0.4 0.01313563088723984 0  0.42 0.01313563088723984 0  0.44 0.01313563088723984 0  0.46 0.01313563088723984 0  0.48 0.01313563088723984 0  0.5 0.01313563088723984 0  0.52 0.01313563088723984 0  0.54 0.01313563088723984 0  0.5600000000000001 0.01313563088723984 0  0.58 0.01313563088723984 0  0.6 0.01313563088723984 0  0.62 0.01313563088723984 0  0.64 0.01313563088723984 0  0.66 0.01313563088723984 0  0.68 0.01313563088723984 0  0.7 0.01313563088723984 0  0.72 0.01313563088723984 0  0.74 0.01313563088723984 0  0.76 0.01313563088723984 0  0.78 0.01313563088723984 0  0.8 0.01313563088723984 0  0.82 0.01313563088723984 0  0.84 0.01313563088723984 0  0.86 0.01313563088723984 0  0.88 0.01313563088723984 0  0.9 0.01313563088723984 0  0.92 0.01313563088723984 0  0.9399999999999999 0.01313563088723984 0  0.96 0.01313563088723984 0  0.98 0.01313563088723984 0  1 0.01313563088723984 0  0 0.02664639863733726 0  0.02 0.02664639863733726 0  0.04 0.02664639863733726 0  0.06 0.02664639863733726 0  0.08 0.02664639863733726 0  0.1 0.02664639863733726 0  0.12 0.02664639863733726 0  0.14 0.02664639863733726 0  0.16 0.02664639863733726 0  0.18 0.02664639863733726 0  0.2 0.02664639863733726 0  0.22 0.02664639863733726 0  0.24 0.02664639863733726 0  0.26 0.02664639863733726 0  0.28 0.02664639863733726 0  0.3 0.02664639863733726 0  0.32 0.02664639863733726 0  0.34 0.02664639863733726 0  0.36 0.02664639863733726 0  0.38 0.02664639863733726 0  0.4 0.02664639863733726 0  0.42 0.02664639863733726 0  0.44 0.02664639863733726 0  0.46 0.02664639863733726 0  0.48 0.02664639863733726 0  0.5 0.02664639863733726 0  0.52 0.02664639863733726 0  0.54 0.02664639863733726 0  0.5600000000000001 0.02664639863733726 0  0.58 0.02664639863733726 0  0.6 0.02664639863733726 0  0.62 0.02664639863733726 0  0.64 0.02664639863733726 0  0.66 0.02664639863733726 0  0.68 0.02664639863733726 0  0.7 0.02664639863733726 0  0.72 0.02664639863733726 0  0.74 0.02664639863733726 0  0.76 0.02664639863733726 0  0.78 0.02664639863733726 0  0.8 0.02664639863733726 0  0.82 0.02664639863733726 0  0.84 0.02664639863733726 0  0.86 0.02664639863733726 0  0.88 0.02664639863733726 0  0.9 0.02664639863733726 0  0.92 0.02664639863733726 0  0.9399999999999999 0.02664639863733726 0  0.96 0.02664639863733726 0  0.98 0.02664639863733726 0  1 0.02664639863733726 0  0 0.04101652939099896 0  0.02 0.04101652939099896 0  0.04 0.04101652939099896 0  0.06 0.04101652939099896 0  0.08 0.04101652939099896 0  0.1 0.04101652939099896 0  0.12 0.04101652939099896 0  0.14 0.04101652939099896 0  0.16 0.04101652939099896 0  0.18 0.04101652939099896 0  0.2 0.04101652939099896 0  0.22 0.04101652939099896 0  0.24 0.04101652939099896 0  0.26 0.04101652939099896 0  0.28 0.04101652939099896 0  0.3 0.04101652939099896 0  0.32 0.04101652939099896 0  0.34 0.04101652939099896 0  0.36 0.04101652939099896 0  0.38 0.04101652939099896 0  0.4 0.04101652939099896 0  0.42 0.04101652939099896 0  0.44 0.04101652939099896 0  0.46 0.04101652939099896 0  0.48 0.04101652939099896 0  0.5 0.04101652939099896 0  0.52 0.04101652939099896 0  0.54 0.04101652939099896 0  0.5600000000000001 0.04101652939099896 0  0.58 0.04101652939099896 0  0.6 0.04101652939099896 0  0.62 0.04101652939099896 0  0.64 0.04101652939099896 0  0.66 0.04101652939099896 0  0.68 0.04101652939099896 0  0.7 0.04101652939099896 0  0.72 0.04101652939099896 0  0.74 0.04101652939099896 0  0.76 0.04101652939099896 0  0.78 0.04101652939099896 0  0.8 0.04101652939099896 0  0.82 0.04101652939099896 0  0.84 0.04101652939099896 0  0.86 0.04101652939099896 0  0.88 0.04101652939099896 0  0.9 0.04101652939099896 0  0.92 0.04101652939099896 0  0.9399999999999999 0.04101652939099896 0  0.96 0.04101652939099896 0  0.98 0.04101652939099896 0  1 0.04101652939099896 0  0 0.05705811164099547 0  0.02 0.05705811164099547 0  0.04 0.05705811164099547 0  0.06 0.05705811164099547 0  0.08 0.05705811164099547 0  0.1 0.05705811164099547 0  0.12 0.05705811164099547 0  0.14 0.05705811164099547 0  0.16 0.05705811164099547 0  0.18 0.05705811164099547 0  0.2 0.05705811164099547 0  0.22 0.05705811164099547 0  0.24 0.05705811164099547 0  0.26 0.05705811164099547 0  0.28 0.05705811164099547 0  0.3 0.05705811164099547 0  0.32 0.05705811164099547 0  0.34 0.05705811164099547 0  0.36 0.05705811164099547 0  0.38 0.05705811164099547 0  0.4 0.05705811164099547 0  0.42 0.05705811164099547 0  0.44 0.05705811164099547 0  0.46 0.05705811164099547 0  0.48 0.05705811164099547 0  0.5 0.05705811164099547 0  0.52 0.05705811164099547 0  0.54 0.05705811164099547 0  0.5600000000000001 0.05705811164099547 0  0.58 0.05705811164099547 0  0.6 0.05705811164099547 0  0.62 0.05705811164099547 0  0.64 0.05705811164099547 0  0.66 0.05705811164099547 0  0.68 0.05705811164099547 0  0.7 0.05705811164099547 0  0.72 0.05705811164099547 0  0.74 0.05705811164099547 0  0.76 0.05705811164099547 0  0.78 0.05705811164099547 0  0.8 0.05705811164099547 0  0.82 0.05705811164099547 0  0.84 0.05705811164099547 0  0.86 0.05705811164099547 0  0.88 0.05705811164099547 0  0.9 0.05705811164099547 0  0.92 0.05705811164099547 0  0.9399999999999999 0.05705811164099547 0  0.96 0.05705811164099547 0  0.98 0.05705811164099547 0  1 0.05705811164099547 0  0 0.07667714377545 0  0.02 0.07667714377545 0  0.04 0.07667714377545 0  0.06 0.07667714377545 0  0.08 0.07667714377545 0  0.1 0.07667714377545 0  0.12 0.07667714377545 0  0.14 0.07667714377545 0  0.16 0.07667714377545 0  0.18 0.07667714377545 0  0.2 0.07667714377545 0  0.22 0.07667714377545 0  0.24 0.07667714377545 0  0.26 0.07667714377545 0  0.28 0.07667714377545 0  0.3 0.07667714377545 0  0.32 0.07667714377545 0  0.34 0.07667714377545 0  0.36 0.07667714377545 0  0.38 0.07667714377545 0  0.4 0.07667714377545 0  0.42 0.07667714377545 0  0.44 0.07667714377545 0  0.46 0.07667714377545 0  0.48 0.07667714377545 0  0.5 0.07667714377545 0  0.52 0.07667714377545 0  0.54 0.07667714377545 0  0.5600000000000001 0.07667714377545 0  0.58 0.07667714377545 0  0.6 0.07667714377545 0  0.62 0.07667714377545 0  0.64 0.07667714377545 0  0.66 0.07667714377545 0  0.68 0.07667714377545 0  0.7 0.07667714377545 0  0.72 0.07667714377545 0  0.74 0.07667714377545 0  0.76 0.07667714377545 0  0.78 0.07667714377545 0  0.8 0.07667714377545 0  0.82 0.07667714377545 0  0.84 0.07667714377545 0  0.86 0.07667714377545 0  0.88 0.07667714377545 0  0.9 0.07667714377545 0  0.92 0.07667714377545 0  0.9399999999999999 0.07667714377545 0  0.96 0.07667714377545 0  0.98 0.07667714377545 0  1 0.07667714377545 0  0 0.1098730133816912 0  0.02 0.1098730133816912 0  0.04 0.1098730133816912 0  0.06 0.1098730133816912 0  0.08 0.1098730133816912 0  0.1 0.1098730133816912 0  0.12 0.1098730133816912 0  0.14 0.1098730133816912 0  0.16 0.1098730133816912 0  0.18 0.1098730133816912 0  0.2 0.1098730133816912 0  0.22 0.1098730133816912 0  0.24 0.1098730133816912 0  0.26 0.1098730133816912 0  0.28 0.1098730133816912 0  0.3 0.1098730133816912 0  0.32 0.1098730133816912 0  0.34 0.1098730133816912 0  0.36 0.1098730133816912 0  0.38 0.1098730133816912 0  0.4 0.1098730133816912 0  0.42 0.1098730133816912 0  0.44 0.1098730133816912 0  0.46 0.1098730133816912 0  0.48 0.1098730133816912 0  0.5 0.1098730133816912 0  0.52 0.1098730133816912 0  0.54 0.1098730133816912 0  0.5600000000000001 0.1098730133816912 0  0.58 0.1098730133816912 0  0.6 0.1098730133816912 0  0.62 0.1098730133816912 0  0.64 0.1098730133816912 0  0.66 0.1098730133816912 0  0.68 0.1098730133816912 0  0.7 0.1098730133816912 0  0.72 0.1098730133816912 0  0.74 0.1098730133816912 0  0.76 0.1098730133816912 0  0.78 0.1098730133816912 0  0.8 0.1098730133816912 0  0.82 0.1098730133816912 0  0.84 0.1098730133816912 0  0.86 0.1098730133816912 0  0.88 0.1098730133816912 0  0.9 0.1098730133816912 0  0.92 0.1098730133816912 0  0.9399999999999999 0.1098730133816912 0  0.96 0.1098730133816912 0  0.98 0.1098730133816912 0  1 0.1098730133816912 0  0 0.1603283563168221 0  0.02 0.1603283563168221 0  0.04 0.1603283563168221 0  0.06 0.1603283563168221 0  0.08 0.1603283563168221 0  0.1 0.1603283563168221 0  0.12 0.1603283563168221 0  0.14 0.1603283563168221 0  0.16 0.1603283563168221 0  0.18 0.1603283563168221 0  0.2 0.1603283563168221 0  0.22 0.1603283563168221 0  0.24 0.1603283563168221 0  0.26 0.1603283563168221 0  0.28 0.1603283563168221 0  0.3 0.1603283563168221 0  0.32 0.1603283563168221 0  0.34 0.1603283563168221 0  0.36 0.1603283563168221 0  0.38 0.1603283563168221 0  0.4 0.1603283563168221 0  0.42 0.1603283563168221 0  0.44 0.1603283563168221 0  0.46 0.1603283563168221 0  0.48 0.1603283563168221 0  0.5 0.1603283563168221 0  0.52 0.1603283563168221 0  0.54 0.1603283563168221 0  0.5600000000000001 0.1603283563168221 0  0.58 0.1603283563168221 0 
[...]
<PointData  Vectors="u_paraw"> 
<DataArray  type="Float64"  Name="u_paraw"  NumberOfComponents="3" format="ascii">4.6668388693003903e-04 3.4001205279981465e-04 0.0000000000000000e+00  4.6668388693249871e-04 3.4001205279496826e-04 0.0000000000000000e+00  4.6668388693433096e-04 3.4001205279516342e-04 0.0000000000000000e+00  4.6668388692822316e-04 3.4001205278748721e-04 0.0000000000000000e+00  4.6668388693322502e-04 3.4001205280082290e-04 0.0000000000000000e+00  4.6668388693788015e-04 3.4001205279865466e-04 0.0000000000000000e+00  4.6668388693459512e-04 3.4001205279854575e-04 0.0000000000000000e+00  4.6668388693447955e-04 3.4001205279946781e-04 0.0000000000000000e+00  4.6668388693018751e-04 3.4001205279532616e-04 0.0000000000000000e+00  4.6668388693893665e-04 3.4001205280203688e-04 0.0000000000000000e+00  4.6668388693281226e-04 3.4001205279852456e-04 0.0000000000000000e+00  4.6668388693580016e-04 3.4001205279749456e-04 0.0000000000000000e+00  4.6668388693187133e-04 3.4001205279459926e-04 0.0000000000000000e+00  4.6668388693816079e-04 3.4001205279895775e-04 0.0000000000000000e+00  4.6668388693477667e-04 3.4001205279664943e-04 0.0000000000000000e+00  4.6668388693201987e-04 3.4001205279356926e-04 0.0000000000000000e+00  4.6668388693713730e-04 3.4001205280471486e-04 0.0000000000000000e+00  4.6668388693773156e-04 3.4001205279751679e-04 0.0000000000000000e+00  4.6668388693513988e-04 3.4001205278912403e-04 0.0000000000000000e+00  4.6668388692660531e-04 3.4001205279428484e-04 0.0000000000000000e+00  4.6668388692847068e-04 3.4001205279207409e-04 0.0000000000000000e+00  4.6668388693593221e-04 3.4001205279502209e-04 0.0000000000000000e+00  4.6668388693687319e-04 3.4001205280100689e-04 0.0000000000000000e+00  4.6668388693594875e-04 3.4001205278977559e-04 0.0000000000000000e+00  4.6668388693139260e-04 3.4001205278737847e-04 0.0000000000000000e+00  4.6668388693119447e-04 3.4001205279479441e-04 0.0000000000000000e+00  4.6668388693390177e-04 3.4001205279489199e-04 0.0000000000000000e+00  4.6668388693149165e-04 3.4001205279214896e-04 0.0000000000000000e+00  4.6668388693708776e-04 3.4001205279774539e-04 0.0000000000000000e+00  4.6668388693452904e-04 3.4001205279251759e-04 0.0000000000000000e+00  4.6668388693406684e-04 3.4001205279083707e-04 0.0000000000000000e+00  4.6668388693834234e-04 3.4001205279445831e-04 0.0000000000000000e+00  4.6668388693074875e-04 3.4001205278457039e-04 0.0000000000000000e+00  4.6668388693350561e-04 3.4001205278928666e-04 0.0000000000000000e+00  4.6668388693771508e-04 3.4001205279549025e-04 0.0000000000000000e+00  4.6668388693679063e-04 3.4001205280096352e-04 0.0000000000000000e+00  4.6668388693124402e-04 3.4001205278947098e-04 0.0000000000000000e+00  4.6668388693685666e-04 3.4001205279056602e-04 0.0000000000000000e+00  4.6668388693150813e-04 3.4001205279008897e-04 0.0000000000000000e+00  4.6668388693584971e-04 3.4001205279763502e-04 0.0000000000000000e+00  4.6668388693441352e-04 3.4001205279433016e-04 0.0000000000000000e+00  4.6668388693840842e-04 3.4001205279631229e-04 0.0000000000000000e+00  4.6668388692904845e-04 3.4001205279240917e-04 0.0000000000000000e+00  4.6668388693669159e-04 3.4001205278826751e-04 0.0000000000000000e+00  4.6668388693657601e-04 3.4001205279515220e-04 0.0000000000000000e+00  4.6668388693205288e-04 3.4001205279523893e-04 0.0000000000000000e+00  4.6668388693413287e-04 3.4001205279330016e-04 0.0000000000000000e+00  4.6668388693675762e-04 3.4001205279823133e-04 0.0000000000000000e+00  4.6668388693583317e-04 3.4001205279868670e-04 0.0000000000000000e+00  4.6668388693543700e-04 3.4001205279520641e-04 0.0000000000000000e+00  4.6668388693003892e-04 4.9815677778958845e-15 0.0000000000000000e+00  -2.4555663899681474e-04 -1.2369479131052678e-03 0.0000000000000000e+00  -2.4555663900249623e-04 -1.2369479131078482e-03 0.0000000000000000e+00  -2.4555663899495300e-04 -1.2369479131039889e-03 0.0000000000000000e+00  -2.4555663899684688e-04 -1.2369479131017983e-03 0.0000000000000000e+00  -2.4555663899360490e-04 -1.2369479131043137e-03 0.0000000000000000e+00  -2.4555663899719995e-04 -1.2369479131044230e-03 0.0000000000000000e+00  -2.4555663899732838e-04 -1.2369479131111650e-03 0.0000000000000000e+00  -2.4555663899935063e-04 -1.2369479131125111e-03 0.0000000000000000e+00  -2.4555663900060245e-04 -1.2369479131055505e-03 0.0000000000000000e+00  -2.4555663899607650e-04 -1.2369479131085846e-03 0.0000000000000000e+00  -2.4555663899970370e-04 -1.2369479131150048e-03 0.0000000000000000e+00  -2.4555663899976789e-04 -1.2369479131095404e-03 0.0000000000000000e+00  -2.4555663899495305e-04 -1.2369479131060475e-03 0.0000000000000000e+00  -2.4555663899774569e-04 -1.2369479131016023e-03 0.0000000000000000e+00  -2.4555663899588395e-04 -1.2369479131100623e-03 0.0000000000000000e+00  -2.4555663899594813e-04 -1.2369479131085629e-03 0.0000000000000000e+00  -2.4555663899472835e-04 -1.2369479131061343e-03 0.0000000000000000e+00  -2.4555663899671851e-04 -1.2369479131131632e-03 0.0000000000000000e+00  -2.4555663899646172e-04 -1.2369479131081292e-03 0.0000000000000000e+00  -2.4555663900031356e-04 -1.2369479131118806e-03 0.0000000000000000e+00  -2.4555663899723210e-04 -1.2369479131077205e-03 0.0000000000000000e+00  -2.4555663899864444e-04 -1.2369479131093652e-03 0.0000000000000000e+00  -2.4555663899864444e-04 -1.2369479131116203e-03 0.0000000000000000e+00  -2.4555663899739256e-04 -1.2369479131073952e-03 0.0000000000000000e+00  -2.4555663899591604e-04 -1.2369479131110999e-03 0.0000000000000000e+00  -2.4555663899764935e-04 -1.2369479131107964e-03 0.0000000000000000e+00  -2.4555663899838764e-04 -1.2369479131105361e-03 0.0000000000000000e+00  -2.4555663900159753e-04 -1.2369479131093218e-03 0.0000000000000000e+00  -2.4555663899787406e-04 -1.2369479131122995e-03 0.0000000000000000e+00  -2.4555663899626911e-04 -1.2369479131133117e-03 0.0000000000000000e+00  -2.4555663899780987e-04 -1.2369479131109915e-03 0.0000000000000000e+00  -2.4555663899588395e-04 -1.2369479131104928e-03 0.0000000000000000e+00  -2.4555663899896541e-04 -1.2369479131228527e-03 0.0000000000000000e+00  -2.4555663899225675e-04 -1.2369479131091050e-03 0.0000000000000000e+00  -2.4555663899617283e-04 -1.2369479131116273e-03 0.0000000000000000e+00  -2.4555663900108394e-04 -1.2369479131185592e-03 0.0000000000000000e+00  -2.4555663899957528e-04 -1.2369479131108614e-03 0.0000000000000000e+00  -2.4555663899665427e-04 -1.2369479131194700e-03 0.0000000000000000e+00  -2.4555663900265680e-04 -1.2369479131235899e-03 0.0000000000000000e+00  -2.4555663899354072e-04 -1.2369479131097122e-03 0.0000000000000000e+00  -2.4555663899575552e-04 -1.2369479131104563e-03 0.0000000000000000e+00  -2.4555663899540245e-04 -1.2369479131118589e-03 0.0000000000000000e+00  -2.4555663899896541e-04 -1.2369479131122275e-03 0.0000000000000000e+00  -2.4555663900214321e-04 -1.2369479131184942e-03 0.0000000000000000e+00  -2.4555663899216047e-04 -1.2369479131096471e-03 0.0000000000000000e+00  -2.4555663898721722e-04 -1.2369479130972872e-03 0.0000000000000000e+00  -2.4555663900005677e-04 -1.2369479131112370e-03 0.0000000000000000e+00  -2.4555663899707158e-04 -1.2369479131154584e-03 0.0000000000000000e+00  -2.4555663899899751e-04 -1.2369479131158704e-03 0.0000000000000000e+00  -2.4555663899646172e-04 -1.2369479131081509e-03 0.0000000000000000e+00  -2.4555663899681479e-04 -1.1581659273636976e-03 0.0000000000000000e+00  2.6600045181676658e-04 5.1915550692152937e-04 0.0000000000000000e+00  2.6600045182551858e-04 5.1915550693909344e-04 0.0000000000000000e+00  2.6600045181676658e-04 5.1915550692846837e-04 0.0000000000000000e+00  2.6600045181737015e-04 5.1915550692573586e-04 0.0000000000000000e+00  2.6600045182111239e-04 5.1915550693167728e-04 0.0000000000000000e+00  2.6600045182244026e-04 5.1915550693410633e-04 0.0000000000000000e+00  2.6600045181857730e-04 5.1915550692686321e-04 0.0000000000000000e+00  2.6600045181924127e-04 5.1915550693120067e-04 0.0000000000000000e+00  2.6600045181658552e-04 5.1915550692781796e-04 0.0000000000000000e+00  2.6600045182751042e-04 5.1915550693848586e-04 0.0000000000000000e+00  2.6600045182358708e-04 5.1915550693506043e-04 0.0000000000000000e+00  2.6600045181700803e-04 5.1915550692326431e-04 0.0000000000000000e+00  2.6600045182020702e-04 5.1915550692595248e-04 0.0000000000000000e+00  2.6600045181839624e-04 5.1915550692959540e-04 0.0000000000000000e+00  2.6600045181411077e-04 5.1915550691654302e-04 0.0000000000000000e+00  2.6600045181598189e-04 5.1915550691554414e-04 0.0000000000000000e+00  2.6600045182370780e-04 5.1915550693050613e-04 0.0000000000000000e+00  2.6600045181513686e-04 5.1915550692734167e-04 0.0000000000000000e+00  2.6600045181803412e-04 5.1915550692504175e-04 0.0000000000000000e+00  2.6600045181640440e-04 5.1915550692690658e-04 0.0000000000000000e+00  2.6600045182129345e-04 5.1915550692365538e-04 0.0000000000000000e+00  2.6600045181586121e-04 5.1915550691944727e-04 0.0000000000000000e+00  2.6600045182111239e-04 5.1915550692569227e-04 0.0000000000000000e+00  2.6600045180807491e-04 5.1915550690518058e-04 0.0000000000000000e+00  2.6600045181785300e-04 5.1915550693310821e-04 0.0000000000000000e+00  2.6600045181887915e-04 5.1915550692352387e-04 0.0000000000000000e+00  2.6600045182038808e-04 5.1915550692712342e-04 0.0000000000000000e+00  2.6600045181519725e-04 5.1915550692577901e-04 0.0000000000000000e+00  2.6600045181042893e-04 5.1915550691454949e-04 0.0000000000000000e+00  2.6600045182244026e-04 5.1915550693198064e-04 0.0000000000000000e+00  2.6600045182111239e-04 5.1915550693072297e-04 0.0000000000000000e+00  2.6600045182014663e-04 5.1915550692369734e-04 0.0000000000000000e+00  2.6600045181918093e-04 5.1915550692408765e-04 0.0000000000000000e+00  2.6600045182117278e-04 5.1915550692612595e-04 0.0000000000000000e+00  2.6600045181586121e-04 5.1915550691350866e-04 0.0000000000000000e+00  2.6600045181863769e-04 5.1915550692829436e-04 0.0000000000000000e+00  2.6600045181863769e-04 5.1915550691671508e-04 0.0000000000000000e+00  2.6600045181284328e-04 5.1915550691983758e-04 0.0000000000000000e+00  2.6600045182099166e-04 5.1915550692118199e-04 0.0000000000000000e+00  2.6600045182419071e-04 5.1915550693215412e-04 0.0000000000000000e+00  2.6600045181724943e-04 5.1915550691823578e-04 0.0000000000000000e+00  2.6600045182219886e-04 5.1915550692616932e-04 0.0000000000000000e+00  2.6600045181477474e-04 5.1915550692001105e-04 0.0000000000000000e+00  2.6600045181827552e-04 5.1915550691979421e-04 0.0000000000000000e+00  2.6600045181652513e-04 5.1915550691454667e-04 0.0000000000000000e+00  2.6600045182141417e-04 5.1915550692747036e-04 0.0000000000000000e+00  2.6600045181537831e-04 5.1915550691936335e-04 0.0000000000000000e+00  2.6600045181827552e-04 5.1915550692842446e-04 0.0000000000000000e+00  2.6600045181839624e-04 5.1915550692248303e-04 0.0000000000000000e+00  2.6600045182370780e-04 5.1915550692721016e-04 0.0000000000000000e+00  2.6600045181676658e-04 -3.2172634212844075e-04 0.0000000000000000e+00  -4.9167391779239415e-04 -1.6255254523262451e-03 0.0000000000000000e+00  -4.9167391779704407e-04 -1.6255254523333575e-03 0.0000000000000000e+00  -4.9167391779617899e-04 -1.6255254523309291e-03 0.0000000000000000e+00  -4.9167391779174525e-04 -1.6255254523195662e-03 0.0000000000000000e+00  -4.9167391778817671e-04 -1.6255254523219948e-03 0.0000000000000000e+00  -4.9167391779120456e-04 -1.6255254523256388e-03 0.0000000000000000e+00  -4.9167391779823366e-04 -1.6255254523249428e-03 0.0000000000000000e+00  -4.9167391779466501e-04 -1.6255254523259858e-03 0.0000000000000000e+00  -4.9167391779607079e-04 -1.6255254523260725e-03 0.0000000000000000e+00  -4.9167391779466501e-04 -1.6255254523263305e-03 0.0000000000000000e+00  -4.9167391779617899e-04 -1.6255254523325777e-03 0.0000000000000000e+00  -4.9167391780050452e-04 -1.6255254523327512e-03 0.0000000000000000e+00  -4.9167391779488131e-04 -1.6255254523356980e-03 0.0000000000000000e+00  -4.9167391779044768e-04 -1.6255254523243356e-03 0.0000000000000000e+00  -4.9167391780007192e-04 -1.6255254523254673e-03 0.0000000000000000e+00  -4.9167391779325923e-04 -1.6255254523327490e-03 0.0000000000000000e+00  -4.9167391779390813e-04 -1.6255254523331827e-03 0.0000000000000000e+00  -4.9167391779769286e-04 -1.6255254523333603e-03 0.0000000000000000e+00  -4.9167391779434062e-04 -1.6255254523360450e-03 0.0000000000000000e+00  -4.9167391779920695e-04 -1.6255254523308408e-03 0.0000000000000000e+00  -4.9167391779985563e-04 -1.6255254523286765e-03 0.0000000000000000e+00  -4.9167391779336744e-04 -1.6255254523382134e-03 0.0000000000000000e+00  -4.9167391779531390e-04 -1.6255254523363052e-03 0.0000000000000000e+00  -4.9167391779217785e-04 -1.6255254523298041e-03 0.0000000000000000e+00  -4.9167391779098837e-04 -1.6255254523297132e-03 0.0000000000000000e+00  -4.9167391779401622e-04 -1.6255254523290194e-03 0.0000000000000000e+00  -4.9167391779747667e-04 -1.6255254523276316e-03 0.0000000000000000e+00  -4.9167391779974764e-04 -1.6255254523407287e-03 0.0000000000000000e+00  -4.9167391779780106e-04 -1.6255254523325846e-03 0.0000000000000000e+00  -4.9167391778882550e-04 -1.6255254523233815e-03 0.0000000000000000e+00  -4.9167391779423252e-04 -1.6255254523288459e-03 0.0000000000000000e+00  -4.9167391780028833e-04 -1.6255254523335296e-03 0.0000000000000000e+00  -4.9167391779488131e-04 -1.6255254523326623e-03 0.0000000000000000e+00  -4.9167391778763602e-04 -1.6255254523245091e-03 0.0000000000000000e+00  -4.9167391779563830e-04 -1.6255254523312836e-03 0.0000000000000000e+00  -4.9167391780050452e-04 -1.6255254523471472e-03 0.0000000000000000e+00  -4.9167391779704407e-04 -1.6255254523337898e-03 0.0000000000000000e+00  -4.9167391779444882e-04 -1.6255254523341368e-03 0.0000000000000000e+00  -4.9167391779628719e-04 -1.6255254523337031e-03 0.0000000000000000e+00  -4.9167391778990688e-04 -1.6255254523298000e-03 0.0000000000000000e+00  -4.9167391779304293e-04 -1.6255254523324112e-03 0.0000000000000000e+00  -4.9167391779596269e-04 -1.6255254523390807e-03 0.0000000000000000e+00  -4.9167391779693598e-04 -1.6255254523324021e-03 0.0000000000000000e+00  -4.9167391779650338e-04 -1.6255254523313612e-03 0.0000000000000000e+00  -4.9167391779563830e-04 -1.6255254523337898e-03 0.0000000000000000e+00  -4.9167391778655463e-04 -1.6255254523306673e-03 0.0000000000000000e+00  -4.9167391778947439e-04 -1.6255254523282478e-03 0.0000000000000000e+00  -4.9167391779401622e-04 -1.6255254523267642e-03 0.0000000000000000e+00  -4.9167391779325923e-04 -1.6255254523237284e-03 0.0000000000000000e+00  -4.9167391779174525e-04 -1.6255254523282387e-03 0.0000000000000000e+00  -4.9167391779239415e-04 2.0709959855006780e-04 0.0000000000000000e+00  7.8083017651417149e-04 1.8710814986140976e-03 0.0000000000000000e+00  7.8083017650939688e-04 1.8710814986071587e-03 0.0000000000000000e+00  7.8083017650860118e-04 1.8710814986063790e-03 0.0000000000000000e+00  7.8083017651275682e-04 1.8710814986143578e-03 0.0000000000000000e+00  7.8083017651160735e-04 1.8710814986046434e-03 0.0000000000000000e+00  7.8083017651107685e-04 1.8710814986161806e-03 0.0000000000000000e+00  7.8083017649834430e-04 1.8710814986033413e-03 0.0000000000000000e+00  7.8083017650497583e-04 1.8710814986091550e-03 0.0000000000000000e+00  7.8083017650541796e-04 1.8710814986152265e-03 0.0000000000000000e+00  7.8083017650276536e-04 1.8710814986060301e-03 0.0000000000000000e+00  7.8083017650612530e-04 1.8710814986149663e-03 0.0000000000000000e+00  7.8083017650391472e-04 1.8710814986121040e-03 0.0000000000000000e+00  7.8083017650126211e-04 1.8710814986048158e-03 0.0000000000000000e+00  7.8083017650506419e-04 1.8710814986062903e-03 0.0000000000000000e+00  7.8083017650647896e-04 1.8710814986029993e-03 0.0000000000000000e+00  7.8083017649905164e-04 1.8710814986027341e-03 0.0000000000000000e+00  7.8083017650745160e-04 1.8710814986064638e-03 0.0000000000000000e+00  7.8083017650170425e-04 1.8710814986034330e-03 0.0000000000000000e+00  7.8083017650594846e-04 1.8710814986075046e-03 0.0000000000000000e+00  7.8083017650833577e-04 1.8710814986014331e-03 0.0000000000000000e+00  7.8083017650541796e-04 1.8710814986100249e-03 0.0000000000000000e+00  7.8083017650064325e-04 1.8710814986066372e-03 0.0000000000000000e+00  7.8083017650214638e-04 1.8710814985997851e-03 0.0000000000000000e+00  7.8083017650639049e-04 1.8710814986083769e-03 0.0000000000000000e+00  7.8083017651036952e-04 1.8710814986043821e-03 0.0000000000000000e+00  7.8083017650462216e-04 1.8710814986038617e-03 0.0000000000000000e+00  7.8083017650665580e-04 1.8710814986066372e-03 0.0000000000000000e+00  7.8083017650851260e-04 1.8710814986042954e-03 0.0000000000000000e+00  7.8083017650409166e-04 1.8710814985994483e-03 0.0000000000000000e+00  7.8083017650851260e-04 1.8710814986047290e-03 0.0000000000000000e+00  7.8083017651054635e-04 1.8710814986110608e-03 0.0000000000000000e+00  7.8083017650205791e-04 1.8710814986005657e-03 0.0000000000000000e+00  7.8083017650594846e-04 1.8710814986028208e-03 0.0000000000000000e+00  7.8083017651293365e-04 1.8710814986045556e-03 0.0000000000000000e+00  7.8083017650745160e-04 1.8710814986095097e-03 0.0000000000000000e+00  7.8083017649922847e-04 1.8710814985964024e-03 0.0000000000000000e+00  7.8083017650762844e-04 1.8710814986027341e-03 0.0000000000000000e+00  7.8083017650692110e-04 1.8710814985996983e-03 0.0000000000000000e+00  7.8083017650524102e-04 1.8710814986044688e-03 0.0000000000000000e+00  7.8083017651231468e-04 1.8710814986050760e-03 0.0000000000000000e+00  7.8083017650930841e-04 1.8710814986049127e-03 0.0000000000000000e+00  7.8083017650506419e-04 1.8710814986039484e-03 0.0000000000000000e+00  7.8083017650789374e-04 1.8710814985989177e-03 0.0000000000000000e+00  7.8083017650762844e-04 1.8710814985998718e-03 0.0000000000000000e+00  7.8083017651249152e-04 1.8710814986134027e-03 0.0000000000000000e+00  7.8083017650815894e-04 1.8710814986004790e-03 0.0000000000000000e+00  7.8083017650727477e-04 1.8710814986038719e-03 0.0000000000000000e+00  7.8083017650612530e-04 1.8710814985997851e-03 0.0000000000000000e+00  7.8083017651461363e-04 1.8710814986207752e-03 0.0000000000000000e+00  7.8083017650479899e-04 1.8710814985970095e-03 0.0000000000000000e+00  7.8083017651417149e-04 -1.0934805273551437e-03 0.0000000000000000e+00  -4.9322654200264842e-04 -2.7425987624602952e-03 0.0000000000000000e+00  -4.9322654200609738e-04 -2.7425987624608156e-03 0.0000000000000000e+00  -4.9322654201278636e-04 -2.7425987624616834e-03 0.0000000000000000e+00  -4.9322654200891923e-04 -2.7425987624615090e-03 0.0000000000000000e+00  -4.9322654201560821e-04 -2.7425987624656724e-03 0.0000000000000000e+00  -4.9322654200714255e-04 -2.7425987624583887e-03 0.0000000000000000e+00  -4.9322654201017343e-04 -2.7425987624675784e-03 0.0000000000000000e+00  -4.9322654200369359e-04 -2.7425987624616847e-03 0.0000000000000000e+00  -4.9322654200933730e-04 -2.7425987624660215e-03 0.0000000000000000e+00  -4.9322654200787406e-04 -2.7425987624687927e-03 0.0000000000000000e+00  -4.9322654200421618e-04 -2.7425987624648072e-03 0.0000000000000000e+00  -4.9322654200756062e-04 -2.7425987624583887e-03 0.0000000000000000e+00  -4.9322654200484317e-04 -2.7425987624568231e-03 0.0000000000000000e+00  -4.9322654200452962e-04 -2.7425987624436392e-03 0.0000000000000000e+00  -4.9322654200724696e-04 -2.7425987624533615e-03 0.0000000000000000e+00  -4.9322654201278625e-04 -2.7425987624661906e-03 0.0000000000000000e+00  -4.9322654201100946e-04 -2.7425987624549149e-03 0.0000000000000000e+00  -4.9322654200871020e-04 -2.7425987624571779e-03 0.0000000000000000e+00  -4.9322654200620189e-04 -2.7425987624458944e-03 0.0000000000000000e+00  -4.9322654200588834e-04 -2.7425987624530067e-03 0.0000000000000000e+00  -4.9322654201289077e-04 -2.7425987624596065e-03 0.0000000000000000e+00  -4.9322654201142753e-04 -2.7425987624630681e-03 0.0000000000000000e+00  -4.9322654200703792e-04 -2.7425987624476291e-03 0.0000000000000000e+00  -4.9322654201038247e-04 -2.7425987624596065e-03 0.0000000000000000e+00  -4.9322654201289077e-04 -2.7425987624597721e-03 0.0000000000000000e+00  -4.9322654200567931e-04 -2.7425