<?xml version="1.0"?>
<VTKFile type="UnstructuredGrid"  version="0.1"  >
<UnstructuredGrid>
<Piece  NumberOfPoints="2601" NumberOfCells="5000">
<Points>
<DataArray  type="Float64"  NumberOfComponents="3"  format="ascii">0 0 0  0.02 0 0  0.04 0 0  0.06 0 0  0.08 0 0  0.1 0 0  0.12 0 0  0.14 0 0  0.16 0 0  0.18 0 0  0.2 0 0  0.22 0 0  0.24 0 0  0.26 0 0  0.28 0 0  0.3 0 0  0.32 0 0  0.34 0 0  0.36 0 0  0.38 0 0  0.4 0 0  0.42 0 0  0.44 0 0  0.46 0 0  0.48 0 0  0.5 0 0  0.52 0 0  0.54 0 0  0.5600000000000001 0 0  0.58 0 0  0.6 0 0  0.62 0 0  0.64 0 0  0.66 0 0  0.68 0 0  0.7 0 0  0.72 0 0  0.74 0 0  0.76 0 0  0.78 0 0  0.8 0 0  0.82 0 0  0.84 0 0  0.86 0 0  0.88 0 0  0.9 0 0  0.92 0 0  0.9399999999999999 0 0  0.96 0 0  0.98 0 0  1 0 0  0 0.01313563088723984 0  0.02 0.01313563088723984 0  0.04 0.01313563088723984 0  0.06 0.01313563088723984 0  0.08 0.01313563088723984 0  0.1 0.01313563088723984 0  0.12 0.01313563088723984 0  0.14 0.01313563088723984 0  0.16 0.01313563088723984 0  0.18 0.01313563088723984 0  0.2 0.01313563088723984 0  0.22 0.01313563088723984 0  0.24 0.01313563088723984 0  0.26 0.01313563088723984 0  0.28 0.01313563088723984 0  0.3 0.01313563088723984 0  0.32 0.01313563088723984 0  0.34 0.01313563088723984 0  0.36 0.01313563088723984 0  0.38 0.01313563088723984 0  0.4 0.01313563088723984 0  0.42 0.01313563088723984 0  0.44 0.01313563088723984 0  0.46 0.01313563088723984 0  0.48 0.01313563088723984 0  0.5 0.01313563088723984 0  0.52 0.01313563088723984 0  0.54 0.01313563088723984 0  0.5600000000000001 0.01313563088723984 0  0.58 0.01313563088723984 0  0.6 0.01313563088723984 0  0.62 0.01313563088723984 0  0.64 0.01313563088723984 0  0.66 0.01313563088723984 0  0.68 0.01313563088723984 0  0.7 0.01313563088723984 0  0.72 0.01313563088723984 0  0.74 0.01313563088723984 0  0.76 0.01313563088723984 0  0.78 0.01313563088723984 0  0.8 0.01313563088723984 0  0.82 0.01313563088723984 0  0.84 0.01313563088723984 0  0.86 0.01313563088723984 0  0.88 0.01313563088723984 0  0.9 0.01313563088723984 0  0.92 0.01313563088723984 0  0.9399999999999999 0.01313563088723984 0  0.96 0.01313563088723984 0  0.98 0.01313563088723984 0  1 0.01313563088723984 0  0 0.02664639863733726 0  0.02 0.02664639863733726 0  0.04 0.02664639863733726 0  0.06 0.02664639863733726 0  0.08 0.02664639863733726 0  0.1 0.02664639863733726 0  0.12 0.02664639863733726 0  0.14 0.02664639863733726 0  0.16 0.02664639863733726 0  0.18 0.02664639863733726 0  0.2 0.02664639863733726 0  0.22 0.02664639863733726 0  0.24 0.02664639863733726 0  0.26 0.02664639863733726 0  0.28 0.02664639863733726 0  0.3 0.02664639863733726 0  0.32 0.02664639863733726 0  0.34 0.02664639863733726 0  0.36 0.02664639863733726 0  0.38 0.02664639863733726 0  0.4 0.02664639863733726 0  0.42 0.02664639863733726 0  0.44 0.02664639863733726 0  0.46 0.02664639863733726 0  0.48 0.02664639863733726 0  0.5 0.02664639863733726 0  0.52 0.02664639863733726 0  0.54 0.02664639863733726 0  0.5600000000000001 0.02664639863733726 0  0.58 0.02664639863733726 0  0.6 0.02664639863733726 0  0.62 0.02664639863733726 0  0.64 0.02664639863733726 0  0.66 0.02664639863733726 0  0.68 0.02664639863733726 0  0.7 0.02664639863733726 0  0.72 0.02664639863733726 0  0.74 0.02664639863733726 0  0.76 0.02664639863733726 0  0.78 0.02664639863733726 0  0.8 0.02664639863733726 0  0.82 0.02664639863733726 0  0.84 0.02664639863733726 0  0.86 0.02664639863733726 0  0.88 0.02664639863733726 0  0.9 0.02664639863733726 0  0.92 0.02664639863733726 0  0.9399999999999999 0.02664639863733726 0  0.96 0.02664639863733726 0  0.98 0.02664639863733726 0  1 0.02664639863733726 0  0 0.04101652939099896 0  0.02 0.04101652939099896 0  0.04 0.04101652939099896 0  0.06 0.04101652939099896 0  0.08 0.04101652939099896 0  0.1 0.04101652939099896 0  0.12 0.04101652939099896 0  0.14 0.04101652939099896 0  0.16 0.04101652939099896 0  0.18 0.04101652939099896 0  0.2 0.04101652939099896 0  0.22 0.04101652939099896 0  0.24 0.04101652939099896 0  0.26 0.04101652939099896 0  0.28 0.04101652939099896 0  0.3 0.04101652939099896 0  0.32 0.04101652939099896 0  0.34 0.04101652939099896 0  0.36 0.04101652939099896 0  0.38 0.04101652939099896 0  0.4 0.04101652939099896 0  0.42 0.04101652939099896 0  0.44 0.04101652939099896 0  0.46 0.04101652939099896 0  0.48 0.04101652939099896 0  0.5 0.04101652939099896 0  0.52 0.04101652939099896 0  0.54 0.04101652939099896 0  0.5600000000000001 0.04101652939099896 0  0.58 0.04101652939099896 0  0.6 0.04101652939099896 0  0.62 0.04101652939099896 0  0.64 0.04101652939099896 0  0.66 0.04101652939099896 0  0.68 0.04101652939099896 0  0.7 0.04101652939099896 0  0.72 0.04101652939099896 0  0.74 0.04101652939099896 0  0.76 0.04101652939099896 0  0.78 0.04101652939099896 0  0.8 0.04101652939099896 0  0.82 0.04101652939099896 0  0.84 0.04101652939099896 0  0.86 0.04101652939099896 0  0.88 0.04101652939099896 0  0.9 0.04101652939099896 0  0.92 0.04101652939099896 0  0.9399999999999999 0.04101652939099896 0  0.96 0.04101652939099896 0  0.98 0.04101652939099896 0  1 0.04101652939099896 0  0 0.05705811164099547 0  0.02 0.05705811164099547 0  0.04 0.05705811164099547 0  0.06 0.05705811164099547 0  0.08 0.05705811164099547 0  0.1 0.05705811164099547 0  0.12 0.05705811164099547 0  0.14 0.05705811164099547 0  0.16 0.05705811164099547 0  0.18 0.05705811164099547 0  0.2 0.05705811164099547 0  0.22 0.05705811164099547 0  0.24 0.05705811164099547 0  0.26 0.05705811164099547 0  0.28 0.05705811164099547 0  0.3 0.05705811164099547 0  0.32 0.05705811164099547 0  0.34 0.05705811164099547 0  0.36 0.05705811164099547 0  0.38 0.05705811164099547 0  0.4 0.05705811164099547 0  0.42 0.05705811164099547 0  0.44 0.05705811164099547 0  0.46 0.05705811164099547 0  0.48 0.05705811164099547 0  0.5 0.05705811164099547 0  0.52 0.05705811164099547 0  0.54 0.05705811164099547 0  0.5600000000000001 0.05705811164099547 0  0.58 0.05705811164099547 0  0.6 0.05705811164099547 0  0.62 0.05705811164099547 0  0.64 0.05705811164099547 0  0.66 0.05705811164099547 0  0.68 0.05705811164099547 0  0.7 0.05705811164099547 0  0.72 0.05705811164099547 0  0.74 0.05705811164099547 0  0.76 0.05705811164099547 0  0.78 0.05705811164099547 0  0.8 0.05705811164099547 0  0.82 0.05705811164099547 0  0.84 0.05705811164099547 0  0.86 0.05705811164099547 0  0.88 0.05705811164099547 0  0.9 0.05705811164099547 0  0.92 0.05705811164099547 0  0.9399999999999999 0.05705811164099547 0  0.96 0.05705811164099547 0  0.98 0.05705811164099547 0  1 0.05705811164099547 0  0 0.07667714377545 0  0.02 0.07667714377545 0  0.04 0.07667714377545 0  0.06 0.07667714377545 0  0.08 0.07667714377545 0  0.1 0.07667714377545 0  0.12 0.07667714377545 0  0.14 0.07667714377545 0  0.16 0.07667714377545 0  0.18 0.07667714377545 0  0.2 0.07667714377545 0  0.22 0.07667714377545 0  0.24 0.07667714377545 0  0.26 0.07667714377545 0  0.28 0.07667714377545 0  0.3 0.07667714377545 0  0.32 0.07667714377545 0  0.34 0.07667714377545 0  0.36 0.07667714377545 0  0.38 0.07667714377545 0  0.4 0.07667714377545 0  0.42 0.07667714377545 0  0.44 0.07667714377545 0  0.46 0.07667714377545 0  0.48 0.07667714377545 0  0.5 0.07667714377545 0  0.52 0.07667714377545 0  0.54 0.07667714377545 0  0.5600000000000001 0.07667714377545 0  0.58 0.07667714377545 0  0.6 0.07667714377545 0  0.62 0.07667714377545 0  0.64 0.07667714377545 0  0.66 0.07667714377545 0  0.68 0.07667714377545 0  0.7 0.07667714377545 0  0.72 0.07667714377545 0  0.74 0.07667714377545 0  0.76 0.07667714377545 0  0.78 0.07667714377545 0  0.8 0.07667714377545 0  0.82 0.07667714377545 0  0.84 0.07667714377545 0  0.86 0.07667714377545 0  0.88 0.07667714377545 0  0.9 0.07667714377545 0  0.92 0.07667714377545 0  0.9399999999999999 0.07667714377545 0  0.96 0.07667714377545 0  0.98 0.07667714377545 0  1 0.07667714377545 0  0 0.1098730133816912 0  0.02 0.1098730133816912 0  0.04 0.1098730133816912 0  0.06 0.1098730133816912 0  0.08 0.1098730133816912 0  0.1 0.1098730133816912 0  0.12 0.1098730133816912 0  0.14 0.1098730133816912 0  0.16 0.1098730133816912 0  0.18 0.1098730133816912 0  0.2 0.1098730133816912 0  0.22 0.1098730133816912 0  0.24 0.1098730133816912 0  0.26 0.1098730133816912 0  0.28 0.1098730133816912 0  0.3 0.1098730133816912 0  0.32 0.1098730133816912 0  0.34 0.1098730133816912 0  0.36 0.1098730133816912 0  0.38 0.1098730133816912 0  0.4 0.1098730133816912 0  0.42 0.1098730133816912 0  0.44 0.1098730133816912 0  0.46 0.1098730133816912 0  0.48 0.1098730133816912 0  0.5 0.1098730133816912 0  0.52 0.1098730133816912 0  0.54 0.1098730133816912 0  0.5600000000000001 0.1098730133816912 0  0.58 0.1098730133816912 0  0.6 0.1098730133816912 0  0.62 0.1098730133816912 0  0.64 0.1098730133816912 0  0.66 0.1098730133816912 0  0.68 0.1098730133816912 0  0.7 0.1098730133816912 0  0.72 0.1098730133816912 0  0.74 0.1098730133816912 0  0.76 0.1098730133816912 0  0.78 0.1098730133816912 0  0.8 0.1098730133816912 0  0.82 0.1098730133816912 0  0.84 0.1098730133816912 0  0.86 0.1098730133816912 0  0.88 0.1098730133816912 0  0.9 0.1098730133816912 0  0.92 0.1098730133816912 0  0.9399999999999999 0.1098730133816912 0  0.96 0.1098730133816912 0  0.98 0.1098730133816912 0  1 0.1098730133816912 0  0 0.1603283563168221 0  0.02 0.1603283563168221 0  0.04 0.1603283563168221 0  0.06 0.1603283563168221 0  0.08 0.1603283563168221 0  0.1 0.1603283563168221 0  0.12 0.1603283563168221 0  0.14 0.1603283563168221 0  0.16 0.1603283563168221 0  0.18 0.1603283563168221 0  0.2 0.1603283563168221 0  0.22 0.1603283563168221 0  0.24 0.1603283563168221 0  0.26 0.1603283563168221 0  0.28 0.1603283563168221 0  0.3 0.1603283563168221 0  0.32 0.1603283563168221 0  0.34 0.1603283563168221 0  0.36 0.1603283563168221 0  0.38 0.1603283563168221 0  0.4 0.1603283563168221 0  0.42 0.1603283563168221 0  0.44 0.1603283563168221 0  0.46 0.1603283563168221 0  0.48 0.1603283563168221 0  0.5 0.1603283563168221 0  0.52 0.1603283563168221 0  0.54 0.1603283563168221 0  0.5600000000000001 0.1603283563168221 0  0.58 0.1603283563168221 0 
[...]
<PointData  Vectors="u_paraw"> 
<DataArray  type="Float64"  Name="u_paraw"  NumberOfComponents="3" format="ascii">-1.1795216488553148e-05 -4.6534612664368008e-05 0.0000000000000000e+00  -1.1795216470328531e-05 -4.6534612654339138e-05 0.0000000000000000e+00  -1.1795216487876326e-05 -4.6534612661668345e-05 0.0000000000000000e+00  -1.1795216492382960e-05 -4.6534612664411369e-05 0.0000000000000000e+00  -1.1795216479523379e-05 -4.6534612637284631e-05 0.0000000000000000e+00  -1.1795216491161379e-05 -4.6534612659771004e-05 0.0000000000000000e+00  -1.1795216486275070e-05 -4.6534612655260662e-05 0.0000000000000000e+00  -1.1795216487678232e-05 -4.6534612647367732e-05 0.0000000000000000e+00  -1.1795216487826804e-05 -4.6534612647096681e-05 0.0000000000000000e+00  -1.1795216497137205e-05 -4.6534612655705185e-05 0.0000000000000000e+00  -1.1795216477724027e-05 -4.6534612657678494e-05 0.0000000000000000e+00  -1.1795216484030007e-05 -4.6534612649915607e-05 0.0000000000000000e+00  -1.1795216485284600e-05 -4.6534612663749965e-05 0.0000000000000000e+00  -1.1795216474026277e-05 -4.6534612659142106e-05 0.0000000000000000e+00  -1.1795216488784256e-05 -4.6534612663793469e-05 0.0000000000000000e+00  -1.1795216486621733e-05 -4.6534612673778835e-05 0.0000000000000000e+00  -1.1795216473910723e-05 -4.6534612651064800e-05 0.0000000000000000e+00  -1.1795216475412933e-05 -4.6534612651661247e-05 0.0000000000000000e+00  -1.1795216480414798e-05 -4.6534612660063678e-05 0.0000000000000000e+00  -1.1795216483089062e-05 -4.6534612666720679e-05 0.0000000000000000e+00  -1.1795216482890970e-05 -4.6534612660161392e-05 0.0000000000000000e+00  -1.1795216477839580e-05 -4.6534612662134504e-05 0.0000000000000000e+00  -1.1795216482643352e-05 -4.6534612664660695e-05 0.0000000000000000e+00  -1.1795216479374807e-05 -4.6534612657136468e-05 0.0000000000000000e+00  -1.1795216481174158e-05 -4.6534612658827687e-05 0.0000000000000000e+00  -1.1795216505374599e-05 -4.6534612674071570e-05 0.0000000000000000e+00  -1.1795216477195776e-05 -4.6534612647703773e-05 0.0000000000000000e+00  -1.1795216479737978e-05 -4.6534612643518753e-05 0.0000000000000000e+00  -1.1795216490385512e-05 -4.6534612662156446e-05 0.0000000000000000e+00  -1.1795216484970952e-05 -4.6534612664075226e-05 0.0000000000000000e+00  -1.1795216476023723e-05 -4.6534612663945122e-05 0.0000000000000000e+00  -1.1795216486638240e-05 -4.6534612673095788e-05 0.0000000000000000e+00  -1.1795216479028142e-05 -4.6534612650913012e-05 0.0000000000000000e+00  -1.1795216480844001e-05 -4.6534612653254888e-05 0.0000000000000000e+00  -1.1795216488322037e-05 -4.6534612669875965e-05 0.0000000000000000e+00  -1.1795216486555702e-05 -4.6534612651487639e-05 0.0000000000000000e+00  -1.1795216491491536e-05 -4.6534612651704479e-05 0.0000000000000000e+00  -1.1795216472458036e-05 -4.6534612653157310e-05 0.0000000000000000e+00  -1.1795216490253450e-05 -4.6534612660768409e-05 0.0000000000000000e+00  -1.1795216482065579e-05 -4.6534612663012708e-05 0.0000000000000000e+00  -1.1795216479605915e-05 -4.6534612653059989e-05 0.0000000000000000e+00  -1.1795216483864929e-05 -4.6534612662503133e-05 0.0000000000000000e+00  -1.1795216493406442e-05 -4.6534612657548329e-05 0.0000000000000000e+00  -1.1795216473316441e-05 -4.6534612662719973e-05 0.0000000000000000e+00  -1.1795216486423639e-05 -4.6534612658686741e-05 0.0000000000000000e+00  -1.1795216486951890e-05 -4.6534612649156604e-05 0.0000000000000000e+00  -1.1795216496146737e-05 -4.6534612669019445e-05 0.0000000000000000e+00  -1.1795216480877017e-05 -4.6534612657244752e-05 0.0000000000000000e+00  -1.1795216485845866e-05 -4.6534612663674071e-05 0.0000000000000000e+00  -1.1795216488454099e-05 -4.6534612666146052e-05 0.0000000000000000e+00  -1.1795216488553146e-05 -5.0127191675863247e-15 0.0000000000000000e+00  1.3260813009002951e-05 1.3868232281973381e-04 0.0000000000000000e+00  1.3260813006081950e-05 1.3868232280219141e-04 0.0000000000000000e+00  1.3260812998474510e-05 1.3868232282352857e-04 0.0000000000000000e+00  1.3260812999341182e-05 1.3868232280505371e-04 0.0000000000000000e+00  1.3260813006402941e-05 1.3868232282014580e-04 0.0000000000000000e+00  1.3260812992793006e-05 1.3868232282172885e-04 0.0000000000000000e+00  1.3260812999212787e-05 1.3868232280635467e-04 0.0000000000000000e+00  1.3260813006627634e-05 1.3868232281904003e-04 0.0000000000000000e+00  1.3260812993274490e-05 1.3868232280394793e-04 0.0000000000000000e+00  1.3260813002358479e-05 1.3868232282346338e-04 0.0000000000000000e+00  1.3260812997800434e-05 1.3868232281303355e-04 0.0000000000000000e+00  1.3260812994205357e-05 1.3868232279679220e-04 0.0000000000000000e+00  1.3260813005600469e-05 1.3868232281340198e-04 0.0000000000000000e+00  1.3260813008553568e-05 1.3868232282513305e-04 0.0000000000000000e+00  1.3260812993980664e-05 1.3868232280988955e-04 0.0000000000000000e+00  1.3260812999822666e-05 1.3868232281216599e-04 0.0000000000000000e+00  1.3260813024603021e-05 1.3868232281689312e-04 0.0000000000000000e+00  1.3260813008200481e-05 1.3868232281815117e-04 0.0000000000000000e+00  1.3260813001170820e-05 1.3868232281472471e-04 0.0000000000000000e+00  1.3260813008296777e-05 1.3868232280908686e-04 0.0000000000000000e+00  1.3260813003802930e-05 1.3868232280884871e-04 0.0000000000000000e+00  1.3260813006820227e-05 1.3868232281407419e-04 0.0000000000000000e+00  1.3260813004252314e-05 1.3868232281374893e-04 0.0000000000000000e+00  1.3260813009612832e-05 1.3868232280980281e-04 0.0000000000000000e+00  1.3260813007590602e-05 1.3868232281437777e-04 0.0000000000000000e+00  1.3260812990867071e-05 1.3868232282064445e-04 0.0000000000000000e+00  1.3260813003802930e-05 1.3868232282229244e-04 0.0000000000000000e+00  1.3260812994076962e-05 1.3868232280767740e-04 0.0000000000000000e+00  1.3260812999565874e-05 1.3868232282207636e-04 0.0000000000000000e+00  1.3260813010094316e-05 1.3868232281674133e-04 0.0000000000000000e+00  1.3260813001170820e-05 1.3868232280082524e-04 0.0000000000000000e+00  1.3260813009709129e-05 1.3868232281398745e-04 0.0000000000000000e+00  1.3260813003770830e-05 1.3868232280071682e-04 0.0000000000000000e+00  1.3260813005183183e-05 1.3868232280841465e-04 0.0000000000000000e+00  1.3260812997126358e-05 1.3868232281340274e-04 0.0000000000000000e+00  1.3260813004958491e-05 1.3868232280639804e-04 0.0000000000000000e+00  1.3260813005472074e-05 1.3868232282790861e-04 0.0000000000000000e+00  1.3260813001652303e-05 1.3868232281004096e-04 0.0000000000000000e+00  1.3260813003578237e-05 1.3868232281307672e-04 0.0000000000000000e+00  1.3260813000143654e-05 1.3868232280047829e-04 0.0000000000000000e+00  1.3260813008072084e-05 1.3868232280130305e-04 0.0000000000000000e+00  1.3260812998731303e-05 1.3868232280570415e-04 0.0000000000000000e+00  1.3260813009805425e-05 1.3868232281079990e-04 0.0000000000000000e+00  1.3260813008136282e-05 1.3868232281021443e-04 0.0000000000000000e+00  1.3260813007269612e-05 1.3868232281498492e-04 0.0000000000000000e+00  1.3260813002390578e-05 1.3868232280717866e-04 0.0000000000000000e+00  1.3260812988106565e-05 1.3868232281509410e-04 0.0000000000000000e+00  1.3260813010993086e-05 1.3868232281669796e-04 0.0000000000000000e+00  1.3260813001395513e-05 1.3868232281405251e-04 0.0000000000000000e+00  1.3260812993852269e-05 1.3868232281923499e-04 0.0000000000000000e+00  1.3260813009002953e-05 -3.8991862874914315e-05 0.0000000000000000e+00  1.1285934766891241e-05 1.4582276811458267e-04 0.0000000000000000e+00  1.1285934736349762e-05 1.4582276807208194e-04 0.0000000000000000e+00  1.1285934766106579e-05 1.4582276809628136e-04 0.0000000000000000e+00  1.1285934758622106e-05 1.4582276809463332e-04 0.0000000000000000e+00  1.1285934752706958e-05 1.4582276809710530e-04 0.0000000000000000e+00  1.1285934746610735e-05 1.4582276809042673e-04 0.0000000000000000e+00  1.1285934746912528e-05 1.4582276808955917e-04 0.0000000000000000e+00  1.1285934757716726e-05 1.4582276808491898e-04 0.0000000000000000e+00  1.1285934738462315e-05 1.4582276808014849e-04 0.0000000000000000e+00  1.1285934765502993e-05 1.4582276809346230e-04 0.0000000000000000e+00  1.1285934746067505e-05 1.4582276808994968e-04 0.0000000000000000e+00  1.1285934743653160e-05 1.4582276807923776e-04 0.0000000000000000e+00  1.1285934762485061e-05 1.4582276808392132e-04 0.0000000000000000e+00  1.1285934772444237e-05 1.4582276810413085e-04 0.0000000000000000e+00  1.1285934757596008e-05 1.4582276808491917e-04 0.0000000000000000e+00  1.1285934759829279e-05 1.4582276808370448e-04 0.0000000000000000e+00  1.1285934770633479e-05 1.4582276809454650e-04 0.0000000000000000e+00  1.1285934750171895e-05 1.4582276808275076e-04 0.0000000000000000e+00  1.1285934756328478e-05 1.4582276809229136e-04 0.0000000000000000e+00  1.1285934759346410e-05 1.4582276808582952e-04 0.0000000000000000e+00  1.1285934751077275e-05 1.4582276808791157e-04 0.0000000000000000e+00  1.1285934756871705e-05 1.4582276809060001e-04 0.0000000000000000e+00  1.1285934753491620e-05 1.4582276807234204e-04 0.0000000000000000e+00  1.1285934754940228e-05 1.4582276809693213e-04 0.0000000000000000e+00  1.1285934757475291e-05 1.4582276808908212e-04 0.0000000000000000e+00  1.1285934752706958e-05 1.4582276809788585e-04 0.0000000000000000e+00  1.1285934754759153e-05 1.4582276809792921e-04 0.0000000000000000e+00  1.1285934749266515e-05 1.4582276809606439e-04 0.0000000000000000e+00  1.1285934740755945e-05 1.4582276807134536e-04 0.0000000000000000e+00  1.1285934750715123e-05 1.4582276809424293e-04 0.0000000000000000e+00  1.1285934744437822e-05 1.4582276808439837e-04 0.0000000000000000e+00  1.1285934763752591e-05 1.4582276808522236e-04 0.0000000000000000e+00  1.1285934751137633e-05 1.4582276808205649e-04 0.0000000000000000e+00  1.1285934750654763e-05 1.4582276807225531e-04 0.0000000000000000e+00  1.1285934748723287e-05 1.4582276810296070e-04 0.0000000000000000e+00  1.1285934739669489e-05 1.4582276807706916e-04 0.0000000000000000e+00  1.1285934762303984e-05 1.4582276809493682e-04 0.0000000000000000e+00  1.1285934752767316e-05 1.4582276807893399e-04 0.0000000000000000e+00  1.1285934757777085e-05 1.4582276808101566e-04 0.0000000000000000e+00  1.1285934757294216e-05 1.4582276809151074e-04 0.0000000000000000e+00  1.1285934748421493e-05 1.4582276808483284e-04 0.0000000000000000e+00  1.1285934744317105e-05 1.4582276807763295e-04 0.0000000000000000e+00  1.1285934755785248e-05 1.4582276808114576e-04 0.0000000000000000e+00  1.1285934756328478e-05 1.4582276809159747e-04 0.0000000000000000e+00  1.1285934753310545e-05 1.4582276808296722e-04 0.0000000000000000e+00  1.1285934749870101e-05 1.4582276808478868e-04 0.0000000000000000e+00  1.1285934742144193e-05 1.4582276808908291e-04 0.0000000000000000e+00  1.1285934742083835e-05 1.4582276807516097e-04 0.0000000000000000e+00  1.1285934749507950e-05 1.4582276807268899e-04 0.0000000000000000e+00  1.1285934766348014e-05 1.4582276810825082e-04 0.0000000000000000e+00  1.1285934766891241e-05 2.8093273399177894e-04 0.0000000000000000e+00  4.1597514637985678e-05 -1.2882268511085412e-04 0.0000000000000000e+00  4.1597514624143865e-05 -1.2882268509810391e-04 0.0000000000000000e+00  4.1597514641013577e-05 -1.2882268509688963e-04 0.0000000000000000e+00  4.1597514630415934e-05 -1.2882268510686423e-04 0.0000000000000000e+00  4.1597514635282199e-05 -1.2882268511571132e-04 0.0000000000000000e+00  4.1597514656261193e-05 -1.2882268510695105e-04 0.0000000000000000e+00  4.1597514631281053e-05 -1.2882268509836401e-04 0.0000000000000000e+00  4.1597514631713602e-05 -1.2882268510157341e-04 0.0000000000000000e+00  4.1597514639715902e-05 -1.2882268509793049e-04 0.0000000000000000e+00  4.1597514633011277e-05 -1.2882268510556311e-04 0.0000000000000000e+00  4.1597514619602013e-05 -1.2882268513071676e-04 0.0000000000000000e+00  4.1597514649880982e-05 -1.2882268511094091e-04 0.0000000000000000e+00  4.1597514635822898e-05 -1.2882268509975179e-04 0.0000000000000000e+00  4.1597514633984531e-05 -1.2882268511926742e-04 0.0000000000000000e+00  4.1597514632470578e-05 -1.2882268510591041e-04 0.0000000000000000e+00  4.1597514639715909e-05 -1.2882268510573658e-04 0.0000000000000000e+00  4.1597514639499631e-05 -1.2882268512898188e-04 0.0000000000000000e+00  4.1597514639067068e-05 -1.2882268511536465e-04 0.0000000000000000e+00  4.1597514638850790e-05 -1.2882268509940484e-04 0.0000000000000000e+00  4.1597514622521777e-05 -1.2882268512637979e-04 0.0000000000000000e+00  4.1597514638742647e-05 -1.2882268511258909e-04 0.0000000000000000e+00  4.1597514639932187e-05 -1.2882268509732317e-04 0.0000000000000000e+00  4.1597514632578721e-05 -1.2882268510937950e-04 0.0000000000000000e+00  4.1597514638850790e-05 -1.2882268509827762e-04 0.0000000000000000e+00  4.1597514638418234e-05 -1.2882268510400186e-04 0.0000000000000000e+00  4.1597514640256600e-05 -1.2882268510877235e-04 0.0000000000000000e+00  4.1597514630848497e-05 -1.2882268508006267e-04 0.0000000000000000e+00  4.1597514621548522e-05 -1.2882268510434880e-04 0.0000000000000000e+00  4.1597514629334544e-05 -1.2882268510018617e-04 0.0000000000000000e+00  4.1597514647285645e-05 -1.2882268510634373e-04 0.0000000000000000e+00  4.1597514629658964e-05 -1.2882268510330797e-04 0.0000000000000000e+00  4.1597514628577568e-05 -1.2882268511475714e-04 0.0000000000000000e+00  4.1597514630740354e-05 -1.2882268511553777e-04 0.0000000000000000e+00  4.1597514636363589e-05 -1.2882268511545103e-04 0.0000000000000000e+00  4.1597514641337990e-05 -1.2882268511545174e-04 0.0000000000000000e+00  4.1597514635282199e-05 -1.2882268510764478e-04 0.0000000000000000e+00  4.1597514629010130e-05 -1.2882268510165998e-04 0.0000000000000000e+00  4.1597514633876389e-05 -1.2882268512022152e-04 0.0000000000000000e+00  4.1597514632578721e-05 -1.2882268510564984e-04 0.0000000000000000e+00  4.1597514633660111e-05 -1.2882268511406325e-04 0.0000000000000000e+00  4.1597514641229855e-05 -1.2882268509897186e-04 0.0000000000000000e+00  4.1597514638093820e-05 -1.2882268510504269e-04 0.0000000000000000e+00  4.1597514641121712e-05 -1.2882268510521616e-04 0.0000000000000000e+00  4.1597514644257753e-05 -1.2882268511640513e-04 0.0000000000000000e+00  4.1597514647177510e-05 -1.2882268510200693e-04 0.0000000000000000e+00  4.1597514636796145e-05 -1.2882268510903256e-04 0.0000000000000000e+00  4.1597514644041475e-05 -1.2882268509758409e-04 0.0000000000000000e+00  4.1597514638634512e-05 -1.2882268509359352e-04 0.0000000000000000e+00  4.1597514635714755e-05 -1.2882268511397652e-04 0.0000000000000000e+00  4.1597514649015876e-05 -1.2882268509532824e-04 0.0000000000000000e+00  4.1597514637985678e-05 -1.9345648905216770e-05 0.0000000000000000e+00  -1.8280741536764948e-04 -9.0530776422391771e-04 0.0000000000000000e+00  -1.8280741535111486e-04 -9.0530776420969297e-04 0.0000000000000000e+00  -1.8280741536676532e-04 -9.0530776422652001e-04 0.0000000000000000e+00  -1.8280741535730430e-04 -9.0530776422530538e-04 0.0000000000000000e+00  -1.8280741536729582e-04 -9.0530776421394294e-04 0.0000000000000000e+00  -1.8280741537233576e-04 -9.0530776420093316e-04 0.0000000000000000e+00  -1.8280741537949783e-04 -9.0530776420891159e-04 0.0000000000000000e+00  -1.8280741536826843e-04 -9.0530776419425448e-04 0.0000000000000000e+00  -1.8280741538480305e-04 -9.0530776421654567e-04 0.0000000000000000e+00  -1.8280741538329991e-04 -9.0530776422218222e-04 0.0000000000000000e+00  -1.8280741538215044e-04 -9.0530776422825506e-04 0.0000000000000000e+00  -1.8280741538630619e-04 -9.0530776421498442e-04 0.0000000000000000e+00  -1.8280741538780935e-04 -9.0530776423762126e-04 0.0000000000000000e+00  -1.8280741537065579e-04 -9.0530776420761055e-04 0.0000000000000000e+00  -1.8280741537012526e-04 -9.0530776420648547e-04 0.0000000000000000e+00  -1.8280741538223886e-04 -9.0530776423866210e-04 0.0000000000000000e+00  -1.8280741536066427e-04 -9.0530776422114139e-04 0.0000000000000000e+00  -1.8280741535951479e-04 -9.0530776419590366e-04 0.0000000000000000e+00  -1.8280741536738423e-04 -9.0530776423137626e-04 0.0000000000000000e+00  -1.8280741536296321e-04 -9.0530776420622277e-04 0.0000000000000000e+00  -1.8280741535969166e-04 -9.0530776420709262e-04 0.0000000000000000e+00  -1.8280741537286628e-04 -9.0530776422461084e-04 0.0000000000000000e+00  -1.8280741536879895e-04 -9.0530776421064631e-04 0.0000000000000000e+00  -1.8280741536305162e-04 -9.0530776422175104e-04 0.0000000000000000e+00  -1.8280741537321998e-04 -9.0530776420925854e-04 0.0000000000000000e+00  -1.8280741537702206e-04 -9.0530776421203409e-04 0.0000000000000000e+00  -1.8280741537551889e-04 -9.0530776422556494e-04 0.0000000000000000e+00  -1.8280741534855066e-04 -9.0530776421923320e-04 0.0000000000000000e+00  -1.8280741535155697e-04 -9.0530776419928897e-04 0.0000000000000000e+00  -1.8280741535491694e-04 -9.0530776422391695e-04 0.0000000000000000e+00  -1.8280741535783482e-04 -9.0530776421533007e-04 0.0000000000000000e+00  -1.8280741537321998e-04 -9.0530776422192202e-04 0.0000000000000000e+00  -1.8280741536932948e-04 -9.0530776421585048e-04 0.0000000000000000e+00  -1.8280741535942638e-04 -9.0530776421888625e-04 0.0000000000000000e+00  -1.8280741535686219e-04 -9.0530776420223800e-04 0.0000000000000000e+00  -1.8280741534704753e-04 -9.0530776420830444e-04 0.0000000000000000e+00  -1.8280741535792324e-04 -9.0530776419945735e-04 0.0000000000000000e+00  -1.8280741536535057e-04 -9.0530776422651903e-04 0.0000000000000000e+00  -1.8280741535898429e-04 -9.0530776420344721e-04 0.0000000000000000e+00  -1.8280741537092104e-04 -9.0530776421784542e-04 0.0000000000000000e+00  -1.8280741537180526e-04 -9.0530776423060073e-04 0.0000000000000000e+00  -1.8280741535518221e-04 -9.0530776420275332e-04 0.0000000000000000e+00  -1.8280741536101796e-04 -9.0530776421489639e-04 0.0000000000000000e+00  -1.8280741535580116e-04 -9.0530776422105465e-04 0.0000000000000000e+00  -1.8280741536826843e-04 -9.0530776422799355e-04 0.0000000000000000e+00  -1.8280741534934644e-04 -9.0530776420344721e-04 0.0000000000000000e+00  -1.8280741536835684e-04 -9.0530776421160551e-04 0.0000000000000000e+00  -1.8280741537808309e-04 -9.0530776423076911e-04 0.0000000000000000e+00  -1.8280741536137163e-04 -9.0530776421749847e-04 0.0000000000000000e+00  -1.8280741535138013e-04 -9.0530776419008984e-04 0.0000000000000000e+00  -1.8280741536764948e-04 -4.3406592699965843e-04 0.0000000000000000e+00  5.3661571101040631e-04 1.7268715254975878e-03 0.0000000000000000e+00  5.3661571100925662e-04 1.7268715255041797e-03 0.0000000000000000e+00  5.3661571100434443e-04 1.7268715254871796e-03 0.0000000000000000e+00  5.3661571099263884e-04 1.7268715254988019e-03 0.0000000000000000e+00  5.3661571096954110e-04 1.7268715254823220e-03 0.0000000000000000e+00  5.3661571097894743e-04 1.7268715254875272e-03 0.0000000000000000e+00  5.3661571097487126e-04 1.7268715254484934e-03 0.0000000000000000e+00  5.3661571099525166e-04 1.7268715254850986e-03 0.0000000000000000e+00  5.3661571099629683e-04 1.7268715254465878e-03 0.0000000000000000e+00  5.3661571101260095e-04 1.7268715254712182e-03 0.0000000000000000e+00  5.3661571101772229e-04 1.7268715255086909e-03 0.0000000000000000e+00  5.3661571101301913e-04 1.7268715255034867e-03 0.0000000000000000e+00  5.3661571102043963e-04 1.7268715254859634e-03 0.0000000000000000e+00  5.3661571101772218e-04 1.7268715254915145e-03 0.0000000000000000e+00  5.3661571100110440e-04 1.7268715254991521e-03 0.0000000000000000e+00  5.3661571099337035e-04 1.7268715254427688e-03 0.0000000000000000e+00  5.3661571100340377e-04 1.7268715254896063e-03 0.0000000000000000e+00  5.3661571098647244e-04 1.7268715254609881e-03 0.0000000000000000e+00  5.3661571099347487e-04 1.7268715254746877e-03 0.0000000000000000e+00  5.3661571099504262e-04 1.7268715254821470e-03 0.0000000000000000e+00  5.3661571098239638e-04 1.7268715254715700e-03 0.0000000000000000e+00  5.3661571099890965e-04 1.7268715254856164e-03 0.0000000000000000e+00  5.3661571099890965e-04 1.7268715255064331e-03 0.0000000000000000e+00  5.3661571098469565e-04 1.7268715254679270e-03 0.0000000000000000e+00  5.3661571098176928e-04 1.7268715254536975e-03 0.0000000000000000e+00  5.3661571100047730e-04 1.72687